
     Program PWSCF v.6.6 starts on 25Feb2022 at 14: 5:41 

     This program is part of the open-source Quantum ESPRESSO suite
     for quantum simulation of materials; please cite
         "P. Giannozzi et al., J. Phys.:Condens. Matter 21 395502 (2009);
         "P. Giannozzi et al., J. Phys.:Condens. Matter 29 465901 (2017);
          URL http://www.quantum-espresso.org", 
     in publications or presentations arising from this work. More details at
     http://www.quantum-espresso.org/quote

     Parallel version (MPI & OpenMP), running on     128 processor cores
     Number of MPI processes:               128
     Threads/MPI process:                     1

     MPI processes distributed on     2 nodes
     K-points division:     npool     =       8
     R & G space division:  proc/nbgrp/npool/nimage =      16
     Fft bands division:     nmany     =       1
     Reading input from supercell.pwi

     Current dimensions of program PWSCF are:
     Max number of different atomic species (ntypx) = 10
     Max number of k-points (npk) =  40000
     Max angular momentum in pseudopotentials (lmaxx) =  3

     Subspace diagonalization in iterative solution of the eigenvalue problem:
     one sub-group per band group will be used
     ELPA distributed-memory algorithm (size of sub-group:  4*  4 procs)

     Message from routine setup:
     using ibrav=0 with symmetry is DISCOURAGED, use correct ibrav instead
     Message from routine divide_et_impera:
     suboptimal parallelization: some nodes have no k-points
 
     Parallelization info
     --------------------
     sticks:   dense  smooth     PW     G-vecs:    dense   smooth      PW
     Min        1517     608    162               178185    45088    6186
     Max        1518     609    163               178190    45091    6189
     Sum       24285    9729   2593              2850995   721415   98985
 


     bravais-lattice index     =            0
     lattice parameter (alat)  =      22.5633  a.u.
     unit-cell volume          =   11487.0783 (a.u.)^3
     number of atoms/cell      =          135
     number of atomic types    =            3
     number of electrons       =      1080.00
     number of Kohn-Sham states=          540
     kinetic-energy cutoff     =      60.0000  Ry
     charge density cutoff     =     600.0000  Ry
     convergence threshold     =      1.0E-10
     mixing beta               =       0.7000
     number of iterations used =            8  plain     mixing
     Exchange-correlation= PBESOL
                           (   1   4  10   8   0   0   0)

     celldm(1)=  22.563330  celldm(2)=   0.000000  celldm(3)=   0.000000
     celldm(4)=   0.000000  celldm(5)=   0.000000  celldm(6)=   0.000000

     crystal axes: (cart. coord. in units of alat)
               a(1) = (   1.000000   0.000000   0.000000 )  
               a(2) = (   0.000000   1.000000   0.000000 )  
               a(3) = (   0.000000   0.000000   1.000000 )  

     reciprocal axes: (cart. coord. in units 2 pi/alat)
               b(1) = (  1.000000  0.000000  0.000000 )  
               b(2) = (  0.000000  1.000000  0.000000 )  
               b(3) = (  0.000000  0.000000  1.000000 )  


     PseudoPot. # 1 for Ba read from file:
     /ccc/cont005/home/infn/monacell/espresso/pseudo/Ba.pbesol-spn-rrkjus_psl.0.2.3-tot-pslib030.UPF
     MD5 check sum: 600fd275cb44502530edfeff6fccb075
     Pseudo is Ultrasoft + core correction, Zval = 10.0
     Generated using "atomic" code by A. Dal Corso v.5.0.2 svn rev. 9605
     Using radial grid of 1251 points,  6 beta functions with: 
                l(1) =   0
                l(2) =   0
                l(3) =   1
                l(4) =   1
                l(5) =   2
                l(6) =   2
     Q(r) pseudized with 0 coefficients 


     PseudoPot. # 2 for O  read from file:
     /ccc/cont005/home/infn/monacell/espresso/pseudo/O.pbesol-n-rrkjus_psl.0.1-tested-pslib030.UPF
     MD5 check sum: 2838b05335761467c29d9945548cc1bb
     Pseudo is Ultrasoft + core correction, Zval =  6.0
     Generated using "atomic" code by A. Dal Corso v.5.0.2 svn rev. 9605
     Using radial grid of 1095 points,  4 beta functions with: 
                l(1) =   0
                l(2) =   0
                l(3) =   1
                l(4) =   1
     Q(r) pseudized with 0 coefficients 


     PseudoPot. # 3 for Ti read from file:
     /ccc/cont005/home/infn/monacell/espresso/pseudo/Ti.pbesol-spn-rrkjus_psl.0.2.3-tot-pslib030.UPF
     MD5 check sum: ad6a9b27c922a47debb8409a3cb1605a
     Pseudo is Ultrasoft + core correction, Zval = 12.0
     Generated using "atomic" code by A. Dal Corso v.5.0.2 svn rev. 9605
     Using radial grid of 1177 points,  6 beta functions with: 
                l(1) =   0
                l(2) =   0
                l(3) =   1
                l(4) =   1
                l(5) =   2
                l(6) =   2
     Q(r) pseudized with 0 coefficients 


     atomic species   valence    mass     pseudopotential
        Ba            10.00   137.32700     Ba( 1.00)
        O              6.00    15.99940     O ( 1.00)
        Ti            12.00    47.86700     Ti( 1.00)

      8 Sym. Ops. (no inversion) found


                                    s                        frac. trans.

      isym =  1     identity                                     

 cryst.   s( 1) = (     1          0          0      )
                  (     0          1          0      )
                  (     0          0          1      )

 cart.    s( 1) = (  1.0000000  0.0000000  0.0000000 )
                  (  0.0000000  1.0000000  0.0000000 )
                  (  0.0000000  0.0000000  1.0000000 )


      isym =  2     180 deg rotation - cart. axis [1,0,0]        

 cryst.   s( 2) = (     1          0          0      )
                  (     0         -1          0      )
                  (     0          0         -1      )

 cart.    s( 2) = (  1.0000000  0.0000000  0.0000000 )
                  (  0.0000000 -1.0000000  0.0000000 )
                  (  0.0000000  0.0000000 -1.0000000 )


      isym =  3      90 deg rotation - cart. axis [-1,0,0]       

 cryst.   s( 3) = (     1          0          0      )
                  (     0          0         -1      )
                  (     0          1          0      )

 cart.    s( 3) = (  1.0000000  0.0000000  0.0000000 )
                  (  0.0000000  0.0000000  1.0000000 )
                  (  0.0000000 -1.0000000  0.0000000 )


      isym =  4      90 deg rotation - cart. axis [1,0,0]        

 cryst.   s( 4) = (     1          0          0      )
                  (     0          0          1      )
                  (     0         -1          0      )

 cart.    s( 4) = (  1.0000000  0.0000000  0.0000000 )
                  (  0.0000000  0.0000000 -1.0000000 )
                  (  0.0000000  1.0000000  0.0000000 )


      isym =  5     inv. 180 deg rotation - cart. axis [0,0,1]   

 cryst.   s( 5) = (     1          0          0      )
                  (     0          1          0      )
                  (     0          0         -1      )

 cart.    s( 5) = (  1.0000000  0.0000000  0.0000000 )
                  (  0.0000000  1.0000000  0.0000000 )
                  (  0.0000000  0.0000000 -1.0000000 )


      isym =  6     inv. 180 deg rotation - cart. axis [0,1,0]   

 cryst.   s( 6) = (     1          0          0      )
                  (     0         -1          0      )
                  (     0          0          1      )

 cart.    s( 6) = (  1.0000000  0.0000000  0.0000000 )
                  (  0.0000000 -1.0000000  0.0000000 )
                  (  0.0000000  0.0000000  1.0000000 )


      isym =  7     inv. 180 deg rotation - cart. axis [0,1,1]   

 cryst.   s( 7) = (     1          0          0      )
                  (     0          0         -1      )
                  (     0         -1          0      )

 cart.    s( 7) = (  1.0000000  0.0000000  0.0000000 )
                  (  0.0000000  0.0000000 -1.0000000 )
                  (  0.0000000 -1.0000000  0.0000000 )


      isym =  8     inv. 180 deg rotation - cart. axis [0,1,-1]  

 cryst.   s( 8) = (     1          0          0      )
                  (     0          0          1      )
                  (     0          1          0      )

 cart.    s( 8) = (  1.0000000  0.0000000  0.0000000 )
                  (  0.0000000  0.0000000  1.0000000 )
                  (  0.0000000  1.0000000  0.0000000 )


   Cartesian axes

     site n.     atom                  positions (alat units)
         1           Ba  tau(   1) = (   0.1666667   0.1666667   0.1666667  )
         2           Ti  tau(   2) = (   0.0041876   0.0000000   0.0000000  )
         3           O   tau(   3) = (   0.1666667   0.0000000   0.0000000  )
         4           O   tau(   4) = (   0.0000000   0.1666667   0.0000000  )
         5           O   tau(   5) = (   0.0000000   0.0000000   0.1666667  )
         6           Ba  tau(   6) = (   0.1666667   0.1666667   0.5000000  )
         7           Ti  tau(   7) = (   0.0000000   0.0000000   0.3333333  )
         8           O   tau(   8) = (   0.1666667   0.0000000   0.3333333  )
         9           O   tau(   9) = (   0.0000000   0.1666667   0.3333333  )
        10           O   tau(  10) = (   0.0000000   0.0000000   0.5000000  )
        11           Ba  tau(  11) = (   0.1666667   0.1666667   0.8333333  )
        12           Ti  tau(  12) = (   0.0000000   0.0000000   0.6666667  )
        13           O   tau(  13) = (   0.1666667   0.0000000   0.6666667  )
        14           O   tau(  14) = (   0.0000000   0.1666667   0.6666667  )
        15           O   tau(  15) = (   0.0000000   0.0000000   0.8333333  )
        16           Ba  tau(  16) = (   0.1666667   0.5000000   0.1666667  )
        17           Ti  tau(  17) = (   0.0000000   0.3333333   0.0000000  )
        18           O   tau(  18) = (   0.1666667   0.3333333   0.0000000  )
        19           O   tau(  19) = (   0.0000000   0.5000000   0.0000000  )
        20           O   tau(  20) = (   0.0000000   0.3333333   0.1666667  )
        21           Ba  tau(  21) = (   0.1666667   0.5000000   0.5000000  )
        22           Ti  tau(  22) = (   0.0000000   0.3333333   0.3333333  )
        23           O   tau(  23) = (   0.1666667   0.3333333   0.3333333  )
        24           O   tau(  24) = (   0.0000000   0.5000000   0.3333333  )
        25           O   tau(  25) = (   0.0000000   0.3333333   0.5000000  )
        26           Ba  tau(  26) = (   0.1666667   0.5000000   0.8333333  )
        27           Ti  tau(  27) = (   0.0000000   0.3333333   0.6666667  )
        28           O   tau(  28) = (   0.1666667   0.3333333   0.6666667  )
        29           O   tau(  29) = (   0.0000000   0.5000000   0.6666667  )
        30           O   tau(  30) = (   0.0000000   0.3333333   0.8333333  )
        31           Ba  tau(  31) = (   0.1666667   0.8333333   0.1666667  )
        32           Ti  tau(  32) = (   0.0000000   0.6666667   0.0000000  )
        33           O   tau(  33) = (   0.1666667   0.6666667   0.0000000  )
        34           O   tau(  34) = (   0.0000000   0.8333333   0.0000000  )
        35           O   tau(  35) = (   0.0000000   0.6666667   0.1666667  )
        36           Ba  tau(  36) = (   0.1666667   0.8333333   0.5000000  )
        37           Ti  tau(  37) = (   0.0000000   0.6666667   0.3333333  )
        38           O   tau(  38) = (   0.1666667   0.6666667   0.3333333  )
        39           O   tau(  39) = (   0.0000000   0.8333333   0.3333333  )
        40           O   tau(  40) = (   0.0000000   0.6666667   0.5000000  )
        41           Ba  tau(  41) = (   0.1666667   0.8333333   0.8333333  )
        42           Ti  tau(  42) = (   0.0000000   0.6666667   0.6666667  )
        43           O   tau(  43) = (   0.1666667   0.6666667   0.6666667  )
        44           O   tau(  44) = (   0.0000000   0.8333333   0.6666667  )
        45           O   tau(  45) = (   0.0000000   0.6666667   0.8333333  )
        46           Ba  tau(  46) = (   0.5000000   0.1666667   0.1666667  )
        47           Ti  tau(  47) = (   0.3333333   0.0000000   0.0000000  )
        48           O   tau(  48) = (   0.5000000   0.0000000   0.0000000  )
        49           O   tau(  49) = (   0.3333333   0.1666667   0.0000000  )
        50           O   tau(  50) = (   0.3333333   0.0000000   0.1666667  )
        51           Ba  tau(  51) = (   0.5000000   0.1666667   0.5000000  )
        52           Ti  tau(  52) = (   0.3333333   0.0000000   0.3333333  )
        53           O   tau(  53) = (   0.5000000   0.0000000   0.3333333  )
        54           O   tau(  54) = (   0.3333333   0.1666667   0.3333333  )
        55           O   tau(  55) = (   0.3333333   0.0000000   0.5000000  )
        56           Ba  tau(  56) = (   0.5000000   0.1666667   0.8333333  )
        57           Ti  tau(  57) = (   0.3333333   0.0000000   0.6666667  )
        58           O   tau(  58) = (   0.5000000   0.0000000   0.6666667  )
        59           O   tau(  59) = (   0.3333333   0.1666667   0.6666667  )
        60           O   tau(  60) = (   0.3333333   0.0000000   0.8333333  )
        61           Ba  tau(  61) = (   0.5000000   0.5000000   0.1666667  )
        62           Ti  tau(  62) = (   0.3333333   0.3333333   0.0000000  )
        63           O   tau(  63) = (   0.5000000   0.3333333   0.0000000  )
        64           O   tau(  64) = (   0.3333333   0.5000000   0.0000000  )
        65           O   tau(  65) = (   0.3333333   0.3333333   0.1666667  )
        66           Ba  tau(  66) = (   0.5000000   0.5000000   0.5000000  )
        67           Ti  tau(  67) = (   0.3333333   0.3333333   0.3333333  )
        68           O   tau(  68) = (   0.5000000   0.3333333   0.3333333  )
        69           O   tau(  69) = (   0.3333333   0.5000000   0.3333333  )
        70           O   tau(  70) = (   0.3333333   0.3333333   0.5000000  )
        71           Ba  tau(  71) = (   0.5000000   0.5000000   0.8333333  )
        72           Ti  tau(  72) = (   0.3333333   0.3333333   0.6666667  )
        73           O   tau(  73) = (   0.5000000   0.3333333   0.6666667  )
        74           O   tau(  74) = (   0.3333333   0.5000000   0.6666667  )
        75           O   tau(  75) = (   0.3333333   0.3333333   0.8333333  )
        76           Ba  tau(  76) = (   0.5000000   0.8333333   0.1666667  )
        77           Ti  tau(  77) = (   0.3333333   0.6666667   0.0000000  )
        78           O   tau(  78) = (   0.5000000   0.6666667   0.0000000  )
        79           O   tau(  79) = (   0.3333333   0.8333333   0.0000000  )
        80           O   tau(  80) = (   0.3333333   0.6666667   0.1666667  )
        81           Ba  tau(  81) = (   0.5000000   0.8333333   0.5000000  )
        82           Ti  tau(  82) = (   0.3333333   0.6666667   0.3333333  )
        83           O   tau(  83) = (   0.5000000   0.6666667   0.3333333  )
        84           O   tau(  84) = (   0.3333333   0.8333333   0.3333333  )
        85           O   tau(  85) = (   0.3333333   0.6666667   0.5000000  )
        86           Ba  tau(  86) = (   0.5000000   0.8333333   0.8333333  )
        87           Ti  tau(  87) = (   0.3333333   0.6666667   0.6666667  )
        88           O   tau(  88) = (   0.5000000   0.6666667   0.6666667  )
        89           O   tau(  89) = (   0.3333333   0.8333333   0.6666667  )
        90           O   tau(  90) = (   0.3333333   0.6666667   0.8333333  )
        91           Ba  tau(  91) = (   0.8333333   0.1666667   0.1666667  )
        92           Ti  tau(  92) = (   0.6666667   0.0000000   0.0000000  )
        93           O   tau(  93) = (   0.8333333   0.0000000   0.0000000  )
        94           O   tau(  94) = (   0.6666667   0.1666667   0.0000000  )
        95           O   tau(  95) = (   0.6666667   0.0000000   0.1666667  )
        96           Ba  tau(  96) = (   0.8333333   0.1666667   0.5000000  )
        97           Ti  tau(  97) = (   0.6666667   0.0000000   0.3333333  )
        98           O   tau(  98) = (   0.8333333   0.0000000   0.3333333  )
        99           O   tau(  99) = (   0.6666667   0.1666667   0.3333333  )
       100           O   tau( 100) = (   0.6666667   0.0000000   0.5000000  )
       101           Ba  tau( 101) = (   0.8333333   0.1666667   0.8333333  )
       102           Ti  tau( 102) = (   0.6666667   0.0000000   0.6666667  )
       103           O   tau( 103) = (   0.8333333   0.0000000   0.6666667  )
       104           O   tau( 104) = (   0.6666667   0.1666667   0.6666667  )
       105           O   tau( 105) = (   0.6666667   0.0000000   0.8333333  )
       106           Ba  tau( 106) = (   0.8333333   0.5000000   0.1666667  )
       107           Ti  tau( 107) = (   0.6666667   0.3333333   0.0000000  )
       108           O   tau( 108) = (   0.8333333   0.3333333   0.0000000  )
       109           O   tau( 109) = (   0.6666667   0.5000000   0.0000000  )
       110           O   tau( 110) = (   0.6666667   0.3333333   0.1666667  )
       111           Ba  tau( 111) = (   0.8333333   0.5000000   0.5000000  )
       112           Ti  tau( 112) = (   0.6666667   0.3333333   0.3333333  )
       113           O   tau( 113) = (   0.8333333   0.3333333   0.3333333  )
       114           O   tau( 114) = (   0.6666667   0.5000000   0.3333333  )
       115           O   tau( 115) = (   0.6666667   0.3333333   0.5000000  )
       116           Ba  tau( 116) = (   0.8333333   0.5000000   0.8333333  )
       117           Ti  tau( 117) = (   0.6666667   0.3333333   0.6666667  )
       118           O   tau( 118) = (   0.8333333   0.3333333   0.6666667  )
       119           O   tau( 119) = (   0.6666667   0.5000000   0.6666667  )
       120           O   tau( 120) = (   0.6666667   0.3333333   0.8333333  )
       121           Ba  tau( 121) = (   0.8333333   0.8333333   0.1666667  )
       122           Ti  tau( 122) = (   0.6666667   0.6666667   0.0000000  )
       123           O   tau( 123) = (   0.8333333   0.6666667   0.0000000  )
       124           O   tau( 124) = (   0.6666667   0.8333333   0.0000000  )
       125           O   tau( 125) = (   0.6666667   0.6666667   0.1666667  )
       126           Ba  tau( 126) = (   0.8333333   0.8333333   0.5000000  )
       127           Ti  tau( 127) = (   0.6666667   0.6666667   0.3333333  )
       128           O   tau( 128) = (   0.8333333   0.6666667   0.3333333  )
       129           O   tau( 129) = (   0.6666667   0.8333333   0.3333333  )
       130           O   tau( 130) = (   0.6666667   0.6666667   0.5000000  )
       131           Ba  tau( 131) = (   0.8333333   0.8333333   0.8333333  )
       132           Ti  tau( 132) = (   0.6666667   0.6666667   0.6666667  )
       133           O   tau( 133) = (   0.8333333   0.6666667   0.6666667  )
       134           O   tau( 134) = (   0.6666667   0.8333333   0.6666667  )
       135           O   tau( 135) = (   0.6666667   0.6666667   0.8333333  )

   Crystallographic axes

     site n.     atom                  positions (cryst. coord.)
         1           Ba  tau(   1) = (  0.1666667  0.1666667  0.1666667  )
         2           Ti  tau(   2) = (  0.0041876  0.0000000  0.0000000  )
         3           O   tau(   3) = (  0.1666667  0.0000000  0.0000000  )
         4           O   tau(   4) = (  0.0000000  0.1666667  0.0000000  )
         5           O   tau(   5) = (  0.0000000  0.0000000  0.1666667  )
         6           Ba  tau(   6) = (  0.1666667  0.1666667  0.5000000  )
         7           Ti  tau(   7) = (  0.0000000  0.0000000  0.3333333  )
         8           O   tau(   8) = (  0.1666667  0.0000000  0.3333333  )
         9           O   tau(   9) = (  0.0000000  0.1666667  0.3333333  )
        10           O   tau(  10) = (  0.0000000  0.0000000  0.5000000  )
        11           Ba  tau(  11) = (  0.1666667  0.1666667  0.8333333  )
        12           Ti  tau(  12) = (  0.0000000  0.0000000  0.6666667  )
        13           O   tau(  13) = (  0.1666667  0.0000000  0.6666667  )
        14           O   tau(  14) = (  0.0000000  0.1666667  0.6666667  )
        15           O   tau(  15) = (  0.0000000  0.0000000  0.8333333  )
        16           Ba  tau(  16) = (  0.1666667  0.5000000  0.1666667  )
        17           Ti  tau(  17) = (  0.0000000  0.3333333  0.0000000  )
        18           O   tau(  18) = (  0.1666667  0.3333333  0.0000000  )
        19           O   tau(  19) = (  0.0000000  0.5000000  0.0000000  )
        20           O   tau(  20) = (  0.0000000  0.3333333  0.1666667  )
        21           Ba  tau(  21) = (  0.1666667  0.5000000  0.5000000  )
        22           Ti  tau(  22) = (  0.0000000  0.3333333  0.3333333  )
        23           O   tau(  23) = (  0.1666667  0.3333333  0.3333333  )
        24           O   tau(  24) = (  0.0000000  0.5000000  0.3333333  )
        25           O   tau(  25) = (  0.0000000  0.3333333  0.5000000  )
        26           Ba  tau(  26) = (  0.1666667  0.5000000  0.8333333  )
        27           Ti  tau(  27) = (  0.0000000  0.3333333  0.6666667  )
        28           O   tau(  28) = (  0.1666667  0.3333333  0.6666667  )
        29           O   tau(  29) = (  0.0000000  0.5000000  0.6666667  )
        30           O   tau(  30) = (  0.0000000  0.3333333  0.8333333  )
        31           Ba  tau(  31) = (  0.1666667  0.8333333  0.1666667  )
        32           Ti  tau(  32) = (  0.0000000  0.6666667  0.0000000  )
        33           O   tau(  33) = (  0.1666667  0.6666667  0.0000000  )
        34           O   tau(  34) = (  0.0000000  0.8333333  0.0000000  )
        35           O   tau(  35) = (  0.0000000  0.6666667  0.1666667  )
        36           Ba  tau(  36) = (  0.1666667  0.8333333  0.5000000  )
        37           Ti  tau(  37) = (  0.0000000  0.6666667  0.3333333  )
        38           O   tau(  38) = (  0.1666667  0.6666667  0.3333333  )
        39           O   tau(  39) = (  0.0000000  0.8333333  0.3333333  )
        40           O   tau(  40) = (  0.0000000  0.6666667  0.5000000  )
        41           Ba  tau(  41) = (  0.1666667  0.8333333  0.8333333  )
        42           Ti  tau(  42) = (  0.0000000  0.6666667  0.6666667  )
        43           O   tau(  43) = (  0.1666667  0.6666667  0.6666667  )
        44           O   tau(  44) = (  0.0000000  0.8333333  0.6666667  )
        45           O   tau(  45) = (  0.0000000  0.6666667  0.8333333  )
        46           Ba  tau(  46) = (  0.5000000  0.1666667  0.1666667  )
        47           Ti  tau(  47) = (  0.3333333  0.0000000  0.0000000  )
        48           O   tau(  48) = (  0.5000000  0.0000000  0.0000000  )
        49           O   tau(  49) = (  0.3333333  0.1666667  0.0000000  )
        50           O   tau(  50) = (  0.3333333  0.0000000  0.1666667  )
        51           Ba  tau(  51) = (  0.5000000  0.1666667  0.5000000  )
        52           Ti  tau(  52) = (  0.3333333  0.0000000  0.3333333  )
        53           O   tau(  53) = (  0.5000000  0.0000000  0.3333333  )
        54           O   tau(  54) = (  0.3333333  0.1666667  0.3333333  )
        55           O   tau(  55) = (  0.3333333  0.0000000  0.5000000  )
        56           Ba  tau(  56) = (  0.5000000  0.1666667  0.8333333  )
        57           Ti  tau(  57) = (  0.3333333  0.0000000  0.6666667  )
        58           O   tau(  58) = (  0.5000000  0.0000000  0.6666667  )
        59           O   tau(  59) = (  0.3333333  0.1666667  0.6666667  )
        60           O   tau(  60) = (  0.3333333  0.0000000  0.8333333  )
        61           Ba  tau(  61) = (  0.5000000  0.5000000  0.1666667  )
        62           Ti  tau(  62) = (  0.3333333  0.3333333  0.0000000  )
        63           O   tau(  63) = (  0.5000000  0.3333333  0.0000000  )
        64           O   tau(  64) = (  0.3333333  0.5000000  0.0000000  )
        65           O   tau(  65) = (  0.3333333  0.3333333  0.1666667  )
        66           Ba  tau(  66) = (  0.5000000  0.5000000  0.5000000  )
        67           Ti  tau(  67) = (  0.3333333  0.3333333  0.3333333  )
        68           O   tau(  68) = (  0.5000000  0.3333333  0.3333333  )
        69           O   tau(  69) = (  0.3333333  0.5000000  0.3333333  )
        70           O   tau(  70) = (  0.3333333  0.3333333  0.5000000  )
        71           Ba  tau(  71) = (  0.5000000  0.5000000  0.8333333  )
        72           Ti  tau(  72) = (  0.3333333  0.3333333  0.6666667  )
        73           O   tau(  73) = (  0.5000000  0.3333333  0.6666667  )
        74           O   tau(  74) = (  0.3333333  0.5000000  0.6666667  )
        75           O   tau(  75) = (  0.3333333  0.3333333  0.8333333  )
        76           Ba  tau(  76) = (  0.5000000  0.8333333  0.1666667  )
        77           Ti  tau(  77) = (  0.3333333  0.6666667  0.0000000  )
        78           O   tau(  78) = (  0.5000000  0.6666667  0.0000000  )
        79           O   tau(  79) = (  0.3333333  0.8333333  0.0000000  )
        80           O   tau(  80) = (  0.3333333  0.6666667  0.1666667  )
        81           Ba  tau(  81) = (  0.5000000  0.8333333  0.5000000  )
        82           Ti  tau(  82) = (  0.3333333  0.6666667  0.3333333  )
        83           O   tau(  83) = (  0.5000000  0.6666667  0.3333333  )
        84           O   tau(  84) = (  0.3333333  0.8333333  0.3333333  )
        85           O   tau(  85) = (  0.3333333  0.6666667  0.5000000  )
        86           Ba  tau(  86) = (  0.5000000  0.8333333  0.8333333  )
        87           Ti  tau(  87) = (  0.3333333  0.6666667  0.6666667  )
        88           O   tau(  88) = (  0.5000000  0.6666667  0.6666667  )
        89           O   tau(  89) = (  0.3333333  0.8333333  0.6666667  )
        90           O   tau(  90) = (  0.3333333  0.6666667  0.8333333  )
        91           Ba  tau(  91) = (  0.8333333  0.1666667  0.1666667  )
        92           Ti  tau(  92) = (  0.6666667  0.0000000  0.0000000  )
        93           O   tau(  93) = (  0.8333333  0.0000000  0.0000000  )
        94           O   tau(  94) = (  0.6666667  0.1666667  0.0000000  )
        95           O   tau(  95) = (  0.6666667  0.0000000  0.1666667  )
        96           Ba  tau(  96) = (  0.8333333  0.1666667  0.5000000  )
        97           Ti  tau(  97) = (  0.6666667  0.0000000  0.3333333  )
        98           O   tau(  98) = (  0.8333333  0.0000000  0.3333333  )
        99           O   tau(  99) = (  0.6666667  0.1666667  0.3333333  )
       100           O   tau( 100) = (  0.6666667  0.0000000  0.5000000  )
       101           Ba  tau( 101) = (  0.8333333  0.1666667  0.8333333  )
       102           Ti  tau( 102) = (  0.6666667  0.0000000  0.6666667  )
       103           O   tau( 103) = (  0.8333333  0.0000000  0.6666667  )
       104           O   tau( 104) = (  0.6666667  0.1666667  0.6666667  )
       105           O   tau( 105) = (  0.6666667  0.0000000  0.8333333  )
       106           Ba  tau( 106) = (  0.8333333  0.5000000  0.1666667  )
       107           Ti  tau( 107) = (  0.6666667  0.3333333  0.0000000  )
       108           O   tau( 108) = (  0.8333333  0.3333333  0.0000000  )
       109           O   tau( 109) = (  0.6666667  0.5000000  0.0000000  )
       110           O   tau( 110) = (  0.6666667  0.3333333  0.1666667  )
       111           Ba  tau( 111) = (  0.8333333  0.5000000  0.5000000  )
       112           Ti  tau( 112) = (  0.6666667  0.3333333  0.3333333  )
       113           O   tau( 113) = (  0.8333333  0.3333333  0.3333333  )
       114           O   tau( 114) = (  0.6666667  0.5000000  0.3333333  )
       115           O   tau( 115) = (  0.6666667  0.3333333  0.5000000  )
       116           Ba  tau( 116) = (  0.8333333  0.5000000  0.8333333  )
       117           Ti  tau( 117) = (  0.6666667  0.3333333  0.6666667  )
       118           O   tau( 118) = (  0.8333333  0.3333333  0.6666667  )
       119           O   tau( 119) = (  0.6666667  0.5000000  0.6666667  )
       120           O   tau( 120) = (  0.6666667  0.3333333  0.8333333  )
       121           Ba  tau( 121) = (  0.8333333  0.8333333  0.1666667  )
       122           Ti  tau( 122) = (  0.6666667  0.6666667  0.0000000  )
       123           O   tau( 123) = (  0.8333333  0.6666667  0.0000000  )
       124           O   tau( 124) = (  0.6666667  0.8333333  0.0000000  )
       125           O   tau( 125) = (  0.6666667  0.6666667  0.1666667  )
       126           Ba  tau( 126) = (  0.8333333  0.8333333  0.5000000  )
       127           Ti  tau( 127) = (  0.6666667  0.6666667  0.3333333  )
       128           O   tau( 128) = (  0.8333333  0.6666667  0.3333333  )
       129           O   tau( 129) = (  0.6666667  0.8333333  0.3333333  )
       130           O   tau( 130) = (  0.6666667  0.6666667  0.5000000  )
       131           Ba  tau( 131) = (  0.8333333  0.8333333  0.8333333  )
       132           Ti  tau( 132) = (  0.6666667  0.6666667  0.6666667  )
       133           O   tau( 133) = (  0.8333333  0.6666667  0.6666667  )
       134           O   tau( 134) = (  0.6666667  0.8333333  0.6666667  )
       135           O   tau( 135) = (  0.6666667  0.6666667  0.8333333  )

     number of k points=     6
                       cart. coord. in units 2pi/alat
        k(    1) = (   0.0000000   0.0000000   0.0000000), wk =   0.2500000
        k(    2) = (   0.0000000   0.0000000  -0.5000000), wk =   0.5000000
        k(    3) = (   0.0000000  -0.5000000  -0.5000000), wk =   0.2500000
        k(    4) = (  -0.5000000  -0.5000000  -0.5000000), wk =   0.2500000
        k(    5) = (  -0.5000000   0.0000000   0.0000000), wk =   0.2500000
        k(    6) = (  -0.5000000   0.5000000   0.0000000), wk =   0.5000000

                       cryst. coord.
        k(    1) = (   0.0000000   0.0000000   0.0000000), wk =   0.2500000
        k(    2) = (   0.0000000   0.0000000  -0.5000000), wk =   0.5000000
        k(    3) = (   0.0000000  -0.5000000  -0.5000000), wk =   0.2500000
        k(    4) = (  -0.5000000  -0.5000000  -0.5000000), wk =   0.2500000
        k(    5) = (  -0.5000000   0.0000000   0.0000000), wk =   0.2500000
        k(    6) = (  -0.5000000   0.5000000   0.0000000), wk =   0.5000000

     Dense  grid:  2850995 G-vectors     FFT dimensions: ( 180, 180, 180)

     Smooth grid:   721415 G-vectors     FFT dimensions: ( 120, 120, 120)

     Dynamical RAM for                 wfc:      46.42 MB

     Dynamical RAM for     wfc (w. buffer):      46.42 MB

     Dynamical RAM for           str. fact:       8.16 MB

     Dynamical RAM for           local pot:       0.00 MB

     Dynamical RAM for          nlocal pot:     139.27 MB

     Dynamical RAM for                qrad:       5.90 MB

     Dynamical RAM for          rho,v,vnew:      17.06 MB

     Dynamical RAM for               rhoin:       5.69 MB

     Dynamical RAM for            rho*nmix:      43.50 MB

     Dynamical RAM for           G-vectors:      10.54 MB

     Dynamical RAM for          h,s,v(r/c):       3.34 MB

     Dynamical RAM for          <psi|beta>:      13.35 MB

     Dynamical RAM for                 psi:      92.85 MB

     Dynamical RAM for                hpsi:      92.85 MB

     Dynamical RAM for                spsi:      92.85 MB

     Dynamical RAM for      wfcinit/wfcrot:     154.29 MB

     Dynamical RAM for           addusdens:      93.12 MB

     Dynamical RAM for          addusforce:     146.80 MB

     Estimated static dynamical RAM per process >     302.23 MB

     Estimated max dynamical RAM per process >     597.46 MB

     Estimated total dynamical RAM >      74.68 GB

     Check: negative core charge=   -0.000010

     Initial potential from superposition of free atoms

     starting charge 1079.53929, renormalised to 1080.00000
     Starting wfcs are  810 randomized atomic wfcs

     total cpu time spent up to now is       22.7 secs

     Self-consistent Calculation

     iteration #  1     ecut=    60.00 Ry     beta= 0.70
     Davidson diagonalization with overlap
     ethr =  1.00E-02,  avg # of iterations =  2.0

     total cpu time spent up to now is       51.4 secs

     total energy              =   -7314.97706254 Ry
     estimated scf accuracy    <      53.07031434 Ry

     iteration #  2     ecut=    60.00 Ry     beta= 0.70
     Davidson diagonalization with overlap
     ethr =  4.91E-03,  avg # of iterations = 14.7

     total cpu time spent up to now is      125.5 secs

     total energy              =   -7245.73148227 Ry
     estimated scf accuracy    <     706.25453242 Ry

     iteration #  3     ecut=    60.00 Ry     beta= 0.70
     Davidson diagonalization with overlap
     ethr =  4.91E-03,  avg # of iterations = 13.2

     total cpu time spent up to now is      189.8 secs

     total energy              =   -7343.13834178 Ry
     estimated scf accuracy    <      12.51061923 Ry

     iteration #  4     ecut=    60.00 Ry     beta= 0.70
     Davidson diagonalization with overlap
     ethr =  1.16E-03,  avg # of iterations = 14.0

     total cpu time spent up to now is      231.4 secs

     total energy              =   -7346.82449661 Ry
     estimated scf accuracy    <       6.67634572 Ry

     iteration #  5     ecut=    60.00 Ry     beta= 0.70
     Davidson diagonalization with overlap
     ethr =  6.18E-04,  avg # of iterations =  2.0

     total cpu time spent up to now is      257.7 secs

     total energy              =   -7345.53321511 Ry
     estimated scf accuracy    <       4.51632049 Ry

     iteration #  6     ecut=    60.00 Ry     beta= 0.70
     Davidson diagonalization with overlap
     ethr =  4.18E-04,  avg # of iterations =  4.5

     total cpu time spent up to now is      288.4 secs

     total energy              =   -7345.96301602 Ry
     estimated scf accuracy    <       0.75853365 Ry

     iteration #  7     ecut=    60.00 Ry     beta= 0.70
     Davidson diagonalization with overlap
     ethr =  7.02E-05,  avg # of iterations =  6.8

     total cpu time spent up to now is      331.4 secs

     total energy              =   -7346.28675350 Ry
     estimated scf accuracy    <       0.05371298 Ry

     iteration #  8     ecut=    60.00 Ry     beta= 0.70
     Davidson diagonalization with overlap
     ethr =  4.97E-06,  avg # of iterations =  7.2

     total cpu time spent up to now is      375.5 secs

     total energy              =   -7346.27321592 Ry
     estimated scf accuracy    <       0.06751571 Ry

     iteration #  9     ecut=    60.00 Ry     beta= 0.70
     Davidson diagonalization with overlap
     ethr =  4.97E-06,  avg # of iterations =  5.5

     total cpu time spent up to now is      416.6 secs

     total energy              =   -7346.28794936 Ry
     estimated scf accuracy    <       0.01144492 Ry

     iteration # 10     ecut=    60.00 Ry     beta= 0.70
     Davidson diagonalization with overlap
     ethr =  1.06E-06,  avg # of iterations =  8.0

     total cpu time spent up to now is      461.6 secs

     total energy              =   -7346.29232873 Ry
     estimated scf accuracy    <       0.02888298 Ry

     iteration # 11     ecut=    60.00 Ry     beta= 0.70
     Davidson diagonalization with overlap
     ethr =  1.06E-06,  avg # of iterations =  3.7

     total cpu time spent up to now is      488.9 secs

     total energy              =   -7346.28685434 Ry
     estimated scf accuracy    <       0.02698695 Ry

     iteration # 12     ecut=    60.00 Ry     beta= 0.70
     Davidson diagonalization with overlap
     ethr =  1.06E-06,  avg # of iterations =  5.5

     total cpu time spent up to now is      520.0 secs

     total energy              =   -7346.28727130 Ry
     estimated scf accuracy    <       0.01101710 Ry

     iteration # 13     ecut=    60.00 Ry     beta= 0.70
     Davidson diagonalization with overlap
     ethr =  1.02E-06,  avg # of iterations =  1.8

     total cpu time spent up to now is      546.1 secs

     total energy              =   -7346.28570174 Ry
     estimated scf accuracy    <       0.00790414 Ry

     iteration # 14     ecut=    60.00 Ry     beta= 0.70
     Davidson diagonalization with overlap
     ethr =  7.32E-07,  avg # of iterations =  6.0

     total cpu time spent up to now is      581.8 secs

     total energy              =   -7346.28747705 Ry
     estimated scf accuracy    <       0.00014974 Ry

     iteration # 15     ecut=    60.00 Ry     beta= 0.70
     Davidson diagonalization with overlap
     ethr =  1.39E-08,  avg # of iterations =  9.7

     total cpu time spent up to now is      632.9 secs

     total energy              =   -7346.28760977 Ry
     estimated scf accuracy    <       0.00029096 Ry

     iteration # 16     ecut=    60.00 Ry     beta= 0.70
     Davidson diagonalization with overlap
     ethr =  1.39E-08,  avg # of iterations =  5.2

     total cpu time spent up to now is      663.0 secs

     total energy              =   -7346.28758916 Ry
     estimated scf accuracy    <       0.00019136 Ry

     iteration # 17     ecut=    60.00 Ry     beta= 0.70
     Davidson diagonalization with overlap
     ethr =  1.39E-08,  avg # of iterations =  5.0

     total cpu time spent up to now is      692.4 secs

     total energy              =   -7346.28759087 Ry
     estimated scf accuracy    <       0.00008920 Ry

     iteration # 18     ecut=    60.00 Ry     beta= 0.70
     Davidson diagonalization with overlap
     ethr =  8.26E-09,  avg # of iterations =  6.0

     total cpu time spent up to now is      722.9 secs

     total energy              =   -7346.28758970 Ry
     estimated scf accuracy    <       0.00003621 Ry

     iteration # 19     ecut=    60.00 Ry     beta= 0.70
     Davidson diagonalization with overlap
     ethr =  3.35E-09,  avg # of iterations =  7.2

     total cpu time spent up to now is      764.7 secs

     total energy              =   -7346.28760162 Ry
     estimated scf accuracy    <       0.00000899 Ry

     iteration # 20     ecut=    60.00 Ry     beta= 0.70
     Davidson diagonalization with overlap
     ethr =  8.32E-10,  avg # of iterations =  6.0

     total cpu time spent up to now is      800.1 secs

     total energy              =   -7346.28760195 Ry
     estimated scf accuracy    <       0.00000513 Ry

     iteration # 21     ecut=    60.00 Ry     beta= 0.70
     Davidson diagonalization with overlap
     ethr =  4.75E-10,  avg # of iterations =  5.2

     total cpu time spent up to now is      830.4 secs

     total energy              =   -7346.28760221 Ry
     estimated scf accuracy    <       0.00000184 Ry

     iteration # 22     ecut=    60.00 Ry     beta= 0.70
     Davidson diagonalization with overlap
     ethr =  1.70E-10,  avg # of iterations =  6.0

     total cpu time spent up to now is      867.3 secs

     total energy              =   -7346.28760248 Ry
     estimated scf accuracy    <       0.00000093 Ry

     iteration # 23     ecut=    60.00 Ry     beta= 0.70
     Davidson diagonalization with overlap
     ethr =  8.65E-11,  avg # of iterations =  2.8

     total cpu time spent up to now is      895.1 secs

     total energy              =   -7346.28760228 Ry
     estimated scf accuracy    <       0.00000071 Ry

     iteration # 24     ecut=    60.00 Ry     beta= 0.70
     Davidson diagonalization with overlap
     ethr =  6.56E-11,  avg # of iterations =  6.0

     total cpu time spent up to now is      932.1 secs

     total energy              =   -7346.28760243 Ry
     estimated scf accuracy    <       0.00000007 Ry

     iteration # 25     ecut=    60.00 Ry     beta= 0.70
     Davidson diagonalization with overlap
     ethr =  6.40E-12,  avg # of iterations =  5.5

     total cpu time spent up to now is      973.2 secs

     total energy              =   -7346.28760245 Ry
     estimated scf accuracy    <       0.00000004 Ry

     iteration # 26     ecut=    60.00 Ry     beta= 0.70
     Davidson diagonalization with overlap
     ethr =  3.78E-12,  avg # of iterations =  5.8

     total cpu time spent up to now is     1014.2 secs

     total energy              =   -7346.28760245 Ry
     estimated scf accuracy    <       0.00000007 Ry

     iteration # 27     ecut=    60.00 Ry     beta= 0.70
     Davidson diagonalization with overlap
     ethr =  3.78E-12,  avg # of iterations =  3.5

     total cpu time spent up to now is     1041.6 secs

     total energy              =   -7346.28760244 Ry
     estimated scf accuracy    <       0.00000005 Ry

     iteration # 28     ecut=    60.00 Ry     beta= 0.70
     Davidson diagonalization with overlap
     ethr =  3.78E-12,  avg # of iterations =  6.0

     total cpu time spent up to now is     1080.8 secs

     total energy              =   -7346.28760245 Ry
     estimated scf accuracy    <          8.0E-09 Ry

     iteration # 29     ecut=    60.00 Ry     beta= 0.70
     Davidson diagonalization with overlap
     ethr =  7.39E-13,  avg # of iterations =  3.3

     total cpu time spent up to now is     1110.4 secs

     total energy              =   -7346.28760245 Ry
     estimated scf accuracy    <          3.9E-09 Ry

     iteration # 30     ecut=    60.00 Ry     beta= 0.70
     Davidson diagonalization with overlap
     ethr =  3.66E-13,  avg # of iterations =  5.8

     total cpu time spent up to now is     1146.2 secs

     total energy              =   -7346.28760245 Ry
     estimated scf accuracy    <          5.5E-10 Ry

     iteration # 31     ecut=    60.00 Ry     beta= 0.70
     Davidson diagonalization with overlap
     ethr =  1.00E-13,  avg # of iterations =  5.8

     total cpu time spent up to now is     1180.9 secs

     total energy              =   -7346.28760245 Ry
     estimated scf accuracy    <          2.3E-10 Ry

     iteration # 32     ecut=    60.00 Ry     beta= 0.70
     Davidson diagonalization with overlap
     ethr =  1.00E-13,  avg # of iterations =  1.0

     total cpu time spent up to now is     1204.1 secs

     total energy              =   -7346.28760245 Ry
     estimated scf accuracy    <          1.3E-10 Ry

     iteration # 33     ecut=    60.00 Ry     beta= 0.70
     Davidson diagonalization with overlap
     ethr =  1.00E-13,  avg # of iterations =  3.7

     total cpu time spent up to now is     1233.7 secs

     total energy              =   -7346.28760245 Ry
     estimated scf accuracy    <          1.3E-10 Ry

     iteration # 34     ecut=    60.00 Ry     beta= 0.70
     Davidson diagonalization with overlap
     ethr =  1.00E-13,  avg # of iterations =  1.2

     total cpu time spent up to now is     1259.2 secs

     End of self-consistent calculation

          k = 0.0000 0.0000 0.0000 ( 90087 PWs)   bands (ev):

   -45.8412 -45.7981 -45.7981 -45.7975 -45.7975 -45.7929 -45.7924 -45.7924
   -45.7919 -45.7892 -45.7884 -45.7884 -45.7883 -45.7880 -45.7876 -45.7875
   -45.7875 -45.7862 -45.7848 -45.7842 -45.7842 -45.7836 -45.7790 -45.7789
   -45.7784 -45.7784 -45.7341 -22.2365 -22.2262 -22.2262 -22.1958 -22.1955
   -22.1929 -22.1929 -22.1916 -22.1915 -22.1909 -22.1906 -22.1898 -22.1894
   -22.1894 -22.1894 -22.1881 -22.1881 -22.1874 -22.1862 -22.1862 -22.1858
   -22.1858 -22.1854 -22.1854 -22.1851 -22.1848 -22.1836 -22.1836 -22.1835
   -22.1835 -22.1831 -22.1830 -22.1826 -22.1826 -22.1820 -22.1820 -22.1809
   -22.1808 -22.1808 -22.1805 -22.1802 -22.1791 -22.1791 -22.1787 -22.1787
   -22.1778 -22.1778 -22.1764 -22.1759 -22.1739 -22.1734 -22.1729 -22.1598
   -22.1598 -22.1559 -22.1559 -22.1477 -22.1477 -22.1467 -22.1466 -22.1427
   -22.1420 -22.1420 -22.1414 -22.1414 -22.1406 -22.1406 -22.1406 -22.1401
   -22.1400 -22.1399 -22.1399 -22.1392 -22.1392 -22.1358 -22.1358 -22.1347
   -22.1347 -22.1084 -22.1084 -22.1040 -14.2298 -14.1412 -14.1320 -14.1320
   -14.1272 -14.1270 -14.1153 -14.0690 -14.0690 -14.0636 -14.0628 -14.0563
   -14.0545 -14.0545 -14.0544 -14.0520 -14.0426 -14.0390 -14.0390 -14.0056
   -13.9987 -13.9987 -13.9962 -13.9887 -13.9836 -13.9836 -13.9723  -6.5748
    -6.5611  -6.5586  -6.5585  -6.5585  -6.5504  -6.3849  -6.3064  -6.2776
    -6.2766  -6.2766  -6.2743  -6.2730  -6.2729  -6.2729  -6.2694  -6.2694
    -6.2679  -6.2517  -5.9115  -5.8924  -5.8924  -5.8903  -5.8870  -5.8853
    -5.8853  -5.8791  -5.7412  -5.7011  -5.6907  -5.6757  -5.6693  -5.6693
    -5.6688  -5.6610  -5.6491  -5.6477  -5.6477  -5.6447  -5.6417  -5.6415
    -5.6414  -5.6414  -5.6386  -5.6374  -5.6374  -5.6216  -5.5832  -5.5585
    -5.5585  -5.5571  -5.5538  -5.5538  -5.5537  -5.5530  -5.5505  -5.5505
    -5.5484  -5.5455  -5.5359  -5.5349  -5.5349  -5.5337  -5.5322  -5.5290
    -5.5290  -5.5286  -5.5279  -5.5272  -5.5272  -5.5246  -5.5213  -5.5187
    -5.5187  -5.4917  -5.4883  -5.4807  -5.4798  -5.4789  -5.4789  -5.3969
     0.1443   0.1443   0.1524   0.1542   0.1544   0.1582   0.1582   0.1589
     0.1617   0.1626   0.1626   0.1665   0.1666   0.1673   0.1743   0.1743
     0.5674   0.5691   0.5706   0.5706   0.5750   0.5750   0.5763   0.5764
     0.5784   0.5786   0.5786   0.5831   0.5934   0.5934   0.5948   0.6369
     0.6370   0.6370   0.6396   0.6409   0.6465   0.6466   0.6466   0.7188
     0.7188   0.7290   0.7295   0.7302   0.7302   0.7302   0.7310   0.7310
     0.7310   0.7432   0.7432   0.7932   0.7995   0.8023   0.8023   0.8026
     0.8045   0.8049   0.8049   0.8074   0.8074   0.8080   0.8147   0.8810
     0.8842   0.8885   0.8885   0.8939   0.8948   0.8948   0.8949   0.9003
     0.9003   0.9054   0.9116   0.9387   0.9467   0.9468   0.9468   0.9486
     0.9538   6.4105   6.4394   6.4394   6.4411   6.4457   6.4464   6.4464
     6.4552   6.4753   6.4880   6.4886   6.4886   6.4923   6.4923   6.4928
     6.4946   6.4962   6.4962   6.4969   6.5159   6.7961   6.8214   6.8221
     6.8221   6.8223   6.8325   6.8843   6.9347   6.9401   6.9401   6.9477
     6.9477   6.9505   6.9505   6.9510   6.9519   6.9531   6.9558   6.9564
     6.9564   6.9572   6.9572   6.9578   6.9578   6.9598   6.9607   6.9619
     6.9621   6.9622   6.9622   6.9633   6.9651   6.9651   6.9655   6.9670
     6.9674   6.9695   6.9703   6.9703   6.9737   6.9737   6.9754   6.9783
     6.9783   6.9876   7.0407   7.4153   7.4153   7.4265   7.4266   7.4271
     7.4284   7.4343   7.4343   7.7641   7.7641   7.7827   7.7839   7.7856
     7.7856   7.7869   7.7878   7.7878   7.7888   7.7891   7.7899   7.7938
     7.7938   7.7985   7.7985   7.7986   7.8001   7.8005   7.8025   7.8025
     7.8043   7.8136   7.8136   7.9522   7.9522   7.9738   7.9741   7.9741
     7.9743   7.9752   7.9762   7.9795   7.9797   7.9848   7.9848   7.9887
     7.9887   7.9954   7.9974   7.9975   8.0008   8.0008   8.0009   8.0013
     8.0025   8.0025   8.0055   8.0066   8.0084   8.0273   8.0273   8.1652
     8.1652   8.1661   8.6378   8.6378   8.6435   8.6510   8.6510   8.6579
     8.6730   8.6730   8.6837   8.6837   8.6852   8.6853   8.6857   8.6857
     8.6871   8.6871   8.7040   8.7040   8.8108   8.8145   8.8152   8.8174
     8.8174   8.8198   9.0343   9.0357   9.0357   9.0374   9.0377   9.0377
     9.0386   9.0387   9.0389   9.0414   9.0414   9.0428   9.1258   9.1265
     9.1265   9.1266   9.1295   9.1305   9.1305   9.1325   9.1334   9.1337
     9.1337   9.1364   9.3253   9.3257   9.3257   9.5008   9.5008   9.5043
     9.5086   9.5094   9.5095   9.5095   9.5095   9.5102   9.5149   9.5168
     9.5168   9.8605   9.8605   9.8786   9.8786   9.8803   9.8825   9.8825
     9.8827   9.8829   9.8829   9.8896   9.8896   9.8997   9.8997   9.9044
     9.9081   9.9099   9.9106   9.9106   9.9110   9.9122   9.9122   9.9127
     9.9143   9.9169   9.9170   9.9373   9.9373  10.1139  10.1139  10.1310
    10.1316  10.1317  10.1337  10.1337  10.1337  10.1364  10.1366  10.1456
    10.1456  10.1484  10.1484  10.1514  10.1533  10.1563  10.1576  10.1789
    10.1789  10.3584  10.3595  10.3595

     occupation numbers 
     1.0000   1.0000   1.0000   1.0000   1.0000   1.0000   1.0000   1.0000
     1.0000   1.0000   1.0000   1.0000   1.0000   1.0000   1.0000   1.0000
     1.0000   1.0000   1.0000   1.0000   1.0000   1.0000   1.0000   1.0000
     1.0000   1.0000   1.0000   1.0000   1.0000   1.0000   1.0000   1.0000
     1.0000   1.0000   1.0000   1.0000   1.0000   1.0000   1.0000   1.0000
     1.0000   1.0000   1.0000   1.0000   1.0000   1.0000   1.0000   1.0000
     1.0000   1.0000   1.0000   1.0000   1.0000   1.0000   1.0000   1.0000
     1.0000   1.0000   1.0000   1.0000   1.0000   1.0000   1.0000   1.0000
     1.0000   1.0000   1.0000   1.0000   1.0000   1.0000   1.0000   1.0000
     1.0000   1.0000   1.0000   1.0000   1.0000   1.0000   1.0000   1.0000
     1.0000   1.0000   1.0000   1.0000   1.0000   1.0000   1.0000   1.0000
     1.0000   1.0000   1.0000   1.0000   1.0000   1.0000   1.0000   1.0000
     1.0000   1.0000   1.0000   1.0000   1.0000   1.0000   1.0000   1.0000
     1.0000   1.0000   1.0000   1.0000   1.0000   1.0000   1.0000   1.0000
     1.0000   1.0000   1.0000   1.0000   1.0000   1.0000   1.0000   1.0000
     1.0000   1.0000   1.0000   1.0000   1.0000   1.0000   1.0000   1.0000
     1.0000   1.0000   1.0000   1.0000   1.0000   1.0000   1.0000   1.0000
     1.0000   1.0000   1.0000   1.0000   1.0000   1.0000   1.0000   1.0000
     1.0000   1.0000   1.0000   1.0000   1.0000   1.0000   1.0000   1.0000
     1.0000   1.0000   1.0000   1.0000   1.0000   1.0000   1.0000   1.0000
     1.0000   1.0000   1.0000   1.0000   1.0000   1.0000   1.0000   1.0000
     1.0000   1.0000   1.0000   1.0000   1.0000   1.0000   1.0000   1.0000
     1.0000   1.0000   1.0000   1.0000   1.0000   1.0000   1.0000   1.0000
     1.0000   1.0000   1.0000   1.0000   1.0000   1.0000   1.0000   1.0000
     1.0000   1.0000   1.0000   1.0000   1.0000   1.0000   1.0000   1.0000
     1.0000   1.0000   1.0000   1.0000   1.0000   1.0000   1.0000   1.0000
     1.0000   1.0000   1.0000   1.0000   1.0000   1.0000   1.0000   1.0000
     1.0000   1.0000   1.0000   1.0000   1.0000   1.0000   1.0000   1.0000
     1.0000   1.0000   1.0000   1.0000   1.0000   1.0000   1.0000   1.0000
     1.0000   1.0000   1.0000   1.0000   1.0000   1.0000   1.0000   1.0000
     1.0000   1.0000   1.0000   1.0000   1.0000   1.0000   1.0000   1.0000
     1.0000   1.0000   1.0000   1.0000   1.0000   1.0000   1.0000   1.0000
     1.0000   1.0000   1.0000   1.0000   1.0000   1.0000   1.0000   1.0000
     1.0000   1.0000   1.0000   1.0000   1.0000   1.0000   1.0000   1.0000
     1.0000   1.0000   1.0000   1.0000   1.0000   1.0000   1.0000   1.0000
     1.0000   1.0000   1.0000   1.0000   1.0000   1.0000   1.0000   1.0000
     1.0000   1.0000   1.0000   1.0000   1.0000   1.0000   1.0000   1.0000
     1.0000   1.0000   1.0000   1.0000   1.0000   1.0000   1.0000   1.0000
     1.0000   1.0000   1.0000   1.0000   1.0000   1.0000   1.0000   1.0000
     1.0000   1.0000   1.0000   1.0000   1.0000   1.0000   1.0000   1.0000
     1.0000   1.0000   1.0000   1.0000   1.0000   1.0000   1.0000   1.0000
     1.0000   1.0000   1.0000   1.0000   1.0000   1.0000   1.0000   1.0000
     1.0000   1.0000   1.0000   1.0000   1.0000   1.0000   1.0000   1.0000
     1.0000   1.0000   1.0000   1.0000   1.0000   1.0000   1.0000   1.0000
     1.0000   1.0000   1.0000   1.0000   1.0000   1.0000   1.0000   1.0000
     1.0000   1.0000   1.0000   1.0000   1.0000   1.0000   1.0000   1.0000
     1.0000   1.0000   1.0000   1.0000   1.0000   1.0000   1.0000   1.0000
     1.0000   1.0000   1.0000   1.0000   1.0000   1.0000   1.0000   1.0000
     1.0000   1.0000   1.0000   1.0000   1.0000   1.0000   1.0000   1.0000
     1.0000   1.0000   1.0000   1.0000   1.0000   1.0000   1.0000   1.0000
     1.0000   1.0000   1.0000   1.0000   1.0000   1.0000   1.0000   1.0000
     1.0000   1.0000   1.0000   1.0000   1.0000   1.0000   1.0000   1.0000
     1.0000   1.0000   1.0000   1.0000   1.0000   1.0000   1.0000   1.0000
     1.0000   1.0000   1.0000   1.0000   1.0000   1.0000   1.0000   1.0000
     1.0000   1.0000   1.0000   1.0000   1.0000   1.0000   1.0000   1.0000
     1.0000   1.0000   1.0000   1.0000   1.0000   1.0000   1.0000   1.0000
     1.0000   1.0000   1.0000   1.0000   1.0000   1.0000   1.0000   1.0000
     1.0000   1.0000   1.0000   1.0000   1.0000   1.0000   1.0000   1.0000
     1.0000   1.0000   1.0000   1.0000   1.0000   1.0000   1.0000   1.0000
     1.0000   1.0000   1.0000   1.0000   1.0000   1.0000   1.0000   1.0000
     1.0000   1.0000   1.0000   1.0000   1.0000   1.0000   1.0000   1.0000
     1.0000   1.0000   1.0000   1.0000   1.0000   1.0000   1.0000   1.0000
     1.0000   1.0000   1.0000   1.0000   1.0000   1.0000   1.0000   1.0000
     1.0000   1.0000   1.0000   1.0000   1.0000   1.0000   1.0000   1.0000
     1.0000   1.0000   1.0000   1.0000   1.0000   1.0000   1.0000   1.0000
     1.0000   1.0000   1.0000   1.0000   1.0000   1.0000   1.0000   1.0000
     1.0000   1.0000   1.0000   1.0000   1.0000   1.0000   1.0000   1.0000
     1.0000   1.0000   1.0000   1.0000

          k = 0.0000 0.0000-0.5000 ( 90192 PWs)   bands (ev):

   -45.8412 -45.7981 -45.7981 -45.7975 -45.7975 -45.7930 -45.7924 -45.7924
   -45.7918 -45.7890 -45.7888 -45.7882 -45.7881 -45.7880 -45.7880 -45.7876
   -45.7873 -45.7862 -45.7848 -45.7842 -45.7842 -45.7836 -45.7789 -45.7789
   -45.7784 -45.7784 -45.7341 -22.2365 -22.2308 -22.2262 -22.2057 -22.2039
   -22.1999 -22.1976 -22.1969 -22.1956 -22.1936 -22.1929 -22.1919 -22.1912
   -22.1911 -22.1910 -22.1898 -22.1894 -22.1893 -22.1880 -22.1878 -22.1866
   -22.1859 -22.1851 -22.1850 -22.1849 -22.1849 -22.1844 -22.1842 -22.1838
   -22.1832 -22.1826 -22.1823 -22.1818 -22.1813 -22.1807 -22.1802 -22.1802
   -22.1799 -22.1794 -22.1789 -22.1786 -22.1778 -22.1762 -22.1739 -22.1731
   -22.1669 -22.1637 -22.1625 -22.1607 -22.1599 -22.1596 -22.1568 -22.1564
   -22.1560 -22.1550 -22.1549 -22.1549 -22.1536 -22.1520 -22.1507 -22.1488
   -22.1478 -22.1475 -22.1466 -22.1446 -22.1426 -22.1419 -22.1417 -22.1412
   -22.1411 -22.1406 -22.1403 -22.1403 -22.1396 -22.1391 -22.1389 -22.1358
   -22.1347 -22.1130 -22.1084 -22.1040 -14.1987 -14.1956 -14.1184 -14.1123
   -14.1115 -14.1055 -14.1032 -14.1032 -14.0992 -14.0914 -14.0876 -14.0471
   -14.0467 -14.0418 -14.0399 -14.0348 -14.0329 -14.0317 -14.0294 -14.0247
   -14.0232 -14.0164 -14.0136 -13.9812 -13.9766 -13.9652 -13.9567  -6.6567
    -6.4772  -6.4574  -6.4569  -6.4534  -6.4533  -6.4533  -6.4497  -6.4437
    -6.4100  -6.4099  -6.2384  -6.2197  -6.2190  -6.2102  -6.1482  -6.1480
    -6.1461  -6.1455  -6.1423  -6.1405  -6.1403  -6.1385  -5.8117  -5.7803
    -5.7758  -5.7710  -5.7233  -5.6885  -5.6810  -5.6680  -5.6664  -5.6580
    -5.6539  -5.6531  -5.6507  -5.6506  -5.6505  -5.6453  -5.6381  -5.6241
    -5.6145  -5.6069  -5.6060  -5.6059  -5.6055  -5.6053  -5.6045  -5.6043
    -5.6042  -5.5999  -5.5842  -5.5641  -5.5554  -5.5540  -5.5536  -5.5531
    -5.5499  -5.5496  -5.5480  -5.5473  -5.5456  -5.5440  -5.5412  -5.5373
    -5.5312  -5.5284  -5.5281  -5.5273  -5.5260  -5.5240  -5.5031  -5.5003
    -5.4991  -5.4926  -5.4924  -5.4905  -5.4849  -5.4847  -5.4030  -5.3549
     0.0211   0.0235   0.0291   0.0307   0.1376   0.1466   0.1581   0.1656
     0.3672   0.3695   0.3756   0.3766   0.4229   0.4268   0.4296   0.4305
     0.4332   0.4338   0.4361   0.4365   0.4397   0.4412   0.4446   0.4478
     0.4517   0.4522   0.4523   0.4536   0.6016   0.6104   0.6116   0.6171
     0.6301   0.6327   0.6358   0.6375   0.6386   0.6404   0.6451   0.6452
     0.6457   0.6459   0.6495   0.6562   0.6687   0.6802   0.6807   0.6913
     0.7149   0.7157   0.7713   0.7720   0.7801   0.7820   0.7833   0.7836
     0.7836   0.7837   0.7913   0.7984   0.9187   0.9204   0.9240   0.9263
     0.9270   0.9290   0.9303   0.9357   0.9394   0.9424   0.9437   0.9448
     0.9454   0.9483   0.9502   0.9525   0.9535   0.9561   0.9575   0.9658
     1.0619   6.1758   6.1855   6.1922   6.1965   6.2254   6.2338   6.2352
     6.2440   6.3963   6.4484   6.4730   6.4731   6.4734   6.4757   6.4766
     6.4769   6.4927   6.5787   6.5926   6.5927   6.6039   6.6995   6.7316
     6.7344   6.7345   6.7346   6.7347   6.7376   6.7502   6.7996   6.8211
     6.8270   6.8281   6.8320   6.8392   6.8415   6.8584   6.9117   6.9501
     6.9530   6.9564   6.9573   6.9574   6.9583   6.9599   6.9631   6.9642
     6.9660   7.0102   7.0569   7.0797   7.0825   7.0827   7.0851   7.0864
     7.0940   7.1036   7.4013   7.4074   7.4108   7.4135   7.5140   7.5190
     7.5271   7.5275   7.5277   7.5277   7.5366   7.5374   7.6150   7.6263
     7.6509   7.6600   7.6608   7.6727   7.7071   7.7078   7.7558   7.7671
     7.7694   7.7708   7.7722   7.7757   7.7767   7.7787   7.7816   7.7822
     7.7858   7.7858   7.7865   7.7865   7.7928   7.7968   7.8011   7.8017
     7.8049   7.8050   7.8052   7.8088   7.8093   7.8130   7.8867   7.8934
     7.8937   7.9004   7.9517   7.9751   7.9770   7.9778   7.9790   7.9801
     7.9826   7.9948   8.0110   8.0146   8.0198   8.0289   8.0424   8.0608
     8.0683   8.0728   8.0749   8.0750   8.0776   8.0848   8.3293   8.3341
     8.3352   8.3356   8.3369   8.3388   8.3397   8.3427   8.3927   8.4195
     8.4220   8.4221   8.4223   8.4227   8.4246   8.4428   8.4651   8.4691
     8.5919   8.5921   8.8743   8.8772   8.8792   8.8802   8.8802   8.8809
     8.8830   8.8863   8.9435   8.9468   8.9476   8.9486   9.0277   9.0281
     9.0285   9.0301   9.0750   9.0764   9.3076   9.3297   9.3346   9.3373
     9.3379   9.3391   9.3406   9.3407   9.3407   9.3408   9.3435   9.3570
     9.4325   9.4328   9.4330   9.4356   9.4375   9.4379   9.4389   9.4419
     9.4431   9.4434   9.4438   9.4563   9.5721   9.5730   9.5754   9.5756
     9.5760   9.5780   9.5794   9.5796   9.6958   9.7036   9.7117   9.7126
     9.7128   9.7137   9.7172   9.7184   9.7186   9.7223   9.7631   9.7655
     9.7868   9.8024   9.8035   9.8036   9.8038   9.8039   9.8044   9.8299
     9.8925   9.9091   9.9141   9.9296  10.0566  10.0846  10.0847  10.0851
    10.0907  10.0911  10.0914  10.0930  10.0986  10.1041  10.1108  10.1199
    10.1646  10.1647  10.1671  10.1784  10.1958  10.2056  10.2061  10.2177
    10.2500  10.2534  10.2590  10.2685

     occupation numbers 
     1.0000   1.0000   1.0000   1.0000   1.0000   1.0000   1.0000   1.0000
     1.0000   1.0000   1.0000   1.0000   1.0000   1.0000   1.0000   1.0000
     1.0000   1.0000   1.0000   1.0000   1.0000   1.0000   1.0000   1.0000
     1.0000   1.0000   1.0000   1.0000   1.0000   1.0000   1.0000   1.0000
     1.0000   1.0000   1.0000   1.0000   1.0000   1.0000   1.0000   1.0000
     1.0000   1.0000   1.0000   1.0000   1.0000   1.0000   1.0000   1.0000
     1.0000   1.0000   1.0000   1.0000   1.0000   1.0000   1.0000   1.0000
     1.0000   1.0000   1.0000   1.0000   1.0000   1.0000   1.0000   1.0000
     1.0000   1.0000   1.0000   1.0000   1.0000   1.0000   1.0000   1.0000
     1.0000   1.0000   1.0000   1.0000   1.0000   1.0000   1.0000   1.0000
     1.0000   1.0000   1.0000   1.0000   1.0000   1.0000   1.0000   1.0000
     1.0000   1.0000   1.0000   1.0000   1.0000   1.0000   1.0000   1.0000
     1.0000   1.0000   1.0000   1.0000   1.0000   1.0000   1.0000   1.0000
     1.0000   1.0000   1.0000   1.0000   1.0000   1.0000   1.0000   1.0000
     1.0000   1.0000   1.0000   1.0000   1.0000   1.0000   1.0000   1.0000
     1.0000   1.0000   1.0000   1.0000   1.0000   1.0000   1.0000   1.0000
     1.0000   1.0000   1.0000   1.0000   1.0000   1.0000   1.0000   1.0000
     1.0000   1.0000   1.0000   1.0000   1.0000   1.0000   1.0000   1.0000
     1.0000   1.0000   1.0000   1.0000   1.0000   1.0000   1.0000   1.0000
     1.0000   1.0000   1.0000   1.0000   1.0000   1.0000   1.0000   1.0000
     1.0000   1.0000   1.0000   1.0000   1.0000   1.0000   1.0000   1.0000
     1.0000   1.0000   1.0000   1.0000   1.0000   1.0000   1.0000   1.0000
     1.0000   1.0000   1.0000   1.0000   1.0000   1.0000   1.0000   1.0000
     1.0000   1.0000   1.0000   1.0000   1.0000   1.0000   1.0000   1.0000
     1.0000   1.0000   1.0000   1.0000   1.0000   1.0000   1.0000   1.0000
     1.0000   1.0000   1.0000   1.0000   1.0000   1.0000   1.0000   1.0000
     1.0000   1.0000   1.0000   1.0000   1.0000   1.0000   1.0000   1.0000
     1.0000   1.0000   1.0000   1.0000   1.0000   1.0000   1.0000   1.0000
     1.0000   1.0000   1.0000   1.0000   1.0000   1.0000   1.0000   1.0000
     1.0000   1.0000   1.0000   1.0000   1.0000   1.0000   1.0000   1.0000
     1.0000   1.0000   1.0000   1.0000   1.0000   1.0000   1.0000   1.0000
     1.0000   1.0000   1.0000   1.0000   1.0000   1.0000   1.0000   1.0000
     1.0000   1.0000   1.0000   1.0000   1.0000   1.0000   1.0000   1.0000
     1.0000   1.0000   1.0000   1.0000   1.0000   1.0000   1.0000   1.0000
     1.0000   1.0000   1.0000   1.0000   1.0000   1.0000   1.0000   1.0000
     1.0000   1.0000   1.0000   1.0000   1.0000   1.0000   1.0000   1.0000
     1.0000   1.0000   1.0000   1.0000   1.0000   1.0000   1.0000   1.0000
     1.0000   1.0000   1.0000   1.0000   1.0000   1.0000   1.0000   1.0000
     1.0000   1.0000   1.0000   1.0000   1.0000   1.0000   1.0000   1.0000
     1.0000   1.0000   1.0000   1.0000   1.0000   1.0000   1.0000   1.0000
     1.0000   1.0000   1.0000   1.0000   1.0000   1.0000   1.0000   1.0000
     1.0000   1.0000   1.0000   1.0000   1.0000   1.0000   1.0000   1.0000
     1.0000   1.0000   1.0000   1.0000   1.0000   1.0000   1.0000   1.0000
     1.0000   1.0000   1.0000   1.0000   1.0000   1.0000   1.0000   1.0000
     1.0000   1.0000   1.0000   1.0000   1.0000   1.0000   1.0000   1.0000
     1.0000   1.0000   1.0000   1.0000   1.0000   1.0000   1.0000   1.0000
     1.0000   1.0000   1.0000   1.0000   1.0000   1.0000   1.0000   1.0000
     1.0000   1.0000   1.0000   1.0000   1.0000   1.0000   1.0000   1.0000
     1.0000   1.0000   1.0000   1.0000   1.0000   1.0000   1.0000   1.0000
     1.0000   1.0000   1.0000   1.0000   1.0000   1.0000   1.0000   1.0000
     1.0000   1.0000   1.0000   1.0000   1.0000   1.0000   1.0000   1.0000
     1.0000   1.0000   1.0000   1.0000   1.0000   1.0000   1.0000   1.0000
     1.0000   1.0000   1.0000   1.0000   1.0000   1.0000   1.0000   1.0000
     1.0000   1.0000   1.0000   1.0000   1.0000   1.0000   1.0000   1.0000
     1.0000   1.0000   1.0000   1.0000   1.0000   1.0000   1.0000   1.0000
     1.0000   1.0000   1.0000   1.0000   1.0000   1.0000   1.0000   1.0000
     1.0000   1.0000   1.0000   1.0000   1.0000   1.0000   1.0000   1.0000
     1.0000   1.0000   1.0000   1.0000   1.0000   1.0000   1.0000   1.0000
     1.0000   1.0000   1.0000   1.0000   1.0000   1.0000   1.0000   1.0000
     1.0000   1.0000   1.0000   1.0000   1.0000   1.0000   1.0000   1.0000
     1.0000   1.0000   1.0000   1.0000   1.0000   1.0000   1.0000   1.0000
     1.0000   1.0000   1.0000   1.0000   1.0000   1.0000   1.0000   1.0000
     1.0000   1.0000   1.0000   1.0000   1.0000   1.0000   1.0000   1.0000
     1.0000   1.0000   1.0000   1.0000   1.0000   1.0000   1.0000   1.0000
     1.0000   1.0000   1.0000   1.0000   1.0000   1.0000   1.0000   1.0000
     1.0000   1.0000   1.0000   1.0000   1.0000   1.0000   1.0000   1.0000
     1.0000   1.0000   1.0000   1.0000   1.0000   1.0000   1.0000   1.0000
     1.0000   1.0000   1.0000   1.0000

          k = 0.0000-0.5000-0.5000 ( 90232 PWs)   bands (ev):

   -45.8412 -45.7981 -45.7981 -45.7976 -45.7975 -45.7930 -45.7924 -45.7924
   -45.7918 -45.7888 -45.7886 -45.7886 -45.7883 -45.7878 -45.7878 -45.7877
   -45.7872 -45.7861 -45.7847 -45.7842 -45.7842 -45.7837 -45.7789 -45.7789
   -45.7784 -45.7784 -45.7341 -22.2365 -22.2308 -22.2308 -22.2057 -22.2057
   -22.2039 -22.2039 -22.1993 -22.1993 -22.1988 -22.1988 -22.1964 -22.1964
   -22.1936 -22.1935 -22.1920 -22.1920 -22.1910 -22.1910 -22.1896 -22.1890
   -22.1883 -22.1863 -22.1863 -22.1846 -22.1840 -22.1839 -22.1839 -22.1829
   -22.1829 -22.1818 -22.1800 -22.1800 -22.1799 -22.1799 -22.1790 -22.1786
   -22.1739 -22.1671 -22.1667 -22.1641 -22.1635 -22.1625 -22.1625 -22.1609
   -22.1609 -22.1596 -22.1594 -22.1564 -22.1564 -22.1564 -22.1564 -22.1559
   -22.1559 -22.1554 -22.1554 -22.1543 -22.1543 -22.1534 -22.1534 -22.1520
   -22.1520 -22.1509 -22.1507 -22.1490 -22.1485 -22.1475 -22.1475 -22.1447
   -22.1444 -22.1422 -22.1417 -22.1417 -22.1409 -22.1401 -22.1401 -22.1395
   -22.1387 -22.1130 -22.1130 -22.1040 -14.1717 -14.1664 -14.1664 -14.1650
   -14.0942 -14.0919 -14.0919 -14.0860 -14.0783 -14.0778 -14.0778 -14.0718
   -14.0717 -14.0676 -14.0676 -14.0600 -14.0226 -14.0197 -14.0197 -14.0126
   -14.0097 -14.0083 -13.9983 -13.9951 -13.9951 -13.9595 -13.9413  -6.5330
    -6.5200  -6.5200  -6.5200  -6.4080  -6.3907  -6.3907  -6.3902  -6.3471
    -6.3457  -6.3457  -6.3438  -6.3392  -6.3368  -6.3368  -6.3266  -6.0987
    -6.0843  -6.0825  -6.0825  -6.0784  -6.0784  -6.0765  -6.0748  -6.0316
    -5.7386  -5.6856  -5.6815  -5.6815  -5.6806  -5.6557  -5.6557  -5.6554
    -5.6447  -5.6388  -5.6353  -5.6353  -5.6294  -5.6287  -5.6287  -5.6264
    -5.6214  -5.6214  -5.6211  -5.6177  -5.6177  -5.6087  -5.6024  -5.5834
    -5.5819  -5.5650  -5.5650  -5.5640  -5.5636  -5.5636  -5.5634  -5.5630
    -5.5615  -5.5615  -5.5608  -5.5598  -5.5565  -5.5554  -5.5554  -5.5433
    -5.5433  -5.5370  -5.5368  -5.5304  -5.5303  -5.5247  -5.5247  -5.4840
    -5.4840  -5.4718  -5.4718  -5.4206  -5.4206  -5.4184  -5.4184  -5.4166
    -0.0193  -0.0193   0.0004   0.0004   0.0556   0.0719   0.3516   0.3516
     0.3558   0.3569   0.3591   0.3592   0.3633   0.3633   0.4775   0.4844
     0.4883   0.4883   0.5015   0.5015   0.5049   0.5113   0.5140   0.5140
     0.5227   0.5235   0.5350   0.5362   0.5388   0.5388   0.5708   0.5708
     0.5908   0.5918   0.5934   0.5934   0.6065   0.6123   0.6130   0.6130
     0.6139   0.6154   0.6154   0.6170   0.6853   0.6857   0.6857   0.6882
     0.7110   0.7133   0.7145   0.7145   0.7844   0.7863   0.7902   0.7902
     0.7943   0.7943   0.8004   0.8008   0.8352   0.8359   0.8367   0.8367
     0.8387   0.8387   0.8389   0.8412   0.9262   0.9267   0.9267   0.9268
     1.0143   1.0344   1.0345   1.0345   1.0384   1.0407   1.0430   1.0430
     1.0433   6.0266   6.0396   6.0773   6.2171   6.2238   6.2284   6.2284
     6.2347   6.2347   6.2388   6.2435   6.2884   6.3445   6.3445   6.3461
     6.3467   6.5317   6.5475   6.5591   6.6002   6.6468   6.6468   6.6472
     6.6509   6.6509   6.6511   6.6731   6.7975   6.8457   6.8480   6.8480
     6.8536   6.8536   6.8563   6.8580   6.8580   6.8745   6.8748   6.8791
     6.8794   6.8872   6.8915   6.8915   6.9120   6.9495   7.2923   7.3052
     7.3052   7.3125   7.3134   7.3152   7.3152   7.3374   7.4168   7.4168
     7.4170   7.4170   7.4454   7.4455   7.4456   7.4456   7.5056   7.5056
     7.5078   7.5079   7.6338   7.6353   7.6353   7.6395   7.6509   7.6509
     7.6560   7.6569   7.6584   7.6584   7.6624   7.6642   7.6665   7.6679
     7.6680   7.6680   7.6687   7.6690   7.6720   7.6751   7.6751   7.6761
     7.6761   7.6778   7.8302   7.8304   7.8304   7.8311   7.8433   7.8433
     7.8542   7.8550   7.8573   7.8583   7.8647   7.8647   7.9397   7.9437
     7.9472   7.9472   7.9478   7.9478   7.9527   7.9577   8.0121   8.0121
     8.0252   8.0252   8.0252   8.0304   8.0320   8.0320   8.0961   8.0961
     8.1063   8.1089   8.1151   8.1177   8.1255   8.1255   8.3079   8.3079
     8.3192   8.3199   8.3220   8.3229   8.3316   8.3316   8.3499   8.3500
     8.3502   8.3502   8.4338   8.4341   8.4358   8.4358   8.6591   8.6591
     8.6601   8.6631   8.6665   8.6696   8.6699   8.6699   8.7482   8.7501
     8.7501   8.7517   8.7518   8.7631   8.7631   8.7668   8.7668   9.3277
     9.3277   9.3328   9.3335   9.3521   9.3521   9.3555   9.3556   9.3938
     9.3938   9.3990   9.3999   9.4312   9.4322   9.4322   9.4334   9.5343
     9.5343   9.5346   9.5355   9.5399   9.5399   9.5403   9.5444   9.5468
     9.5468   9.5500   9.5522   9.5537   9.5581   9.5589   9.5589   9.5723
     9.5723   9.5742   9.5754   9.5820   9.5820   9.5974   9.5987   9.6018
     9.6031   9.6041   9.6041   9.6151   9.6151   9.6155   9.6172   9.6250
     9.6286   9.6286   9.6288   9.6323   9.6323   9.7134   9.7134   9.7206
     9.7207   9.7230   9.7241   9.7381   9.7381   9.9224   9.9228   9.9228
     9.9284  10.0163  10.0163  10.0163  10.0165  10.1561  10.1561  10.1810
    10.1810  10.1830  10.1830  10.1918  10.1920  10.1976  10.1978  10.2243
    10.2243  10.3794  10.4378  10.4501

     occupation numbers 
     1.0000   1.0000   1.0000   1.0000   1.0000   1.0000   1.0000   1.0000
     1.0000   1.0000   1.0000   1.0000   1.0000   1.0000   1.0000   1.0000
     1.0000   1.0000   1.0000   1.0000   1.0000   1.0000   1.0000   1.0000
     1.0000   1.0000   1.0000   1.0000   1.0000   1.0000   1.0000   1.0000
     1.0000   1.0000   1.0000   1.0000   1.0000   1.0000   1.0000   1.0000
     1.0000   1.0000   1.0000   1.0000   1.0000   1.0000   1.0000   1.0000
     1.0000   1.0000   1.0000   1.0000   1.0000   1.0000   1.0000   1.0000
     1.0000   1.0000   1.0000   1.0000   1.0000   1.0000   1.0000   1.0000
     1.0000   1.0000   1.0000   1.0000   1.0000   1.0000   1.0000   1.0000
     1.0000   1.0000   1.0000   1.0000   1.0000   1.0000   1.0000   1.0000
     1.0000   1.0000   1.0000   1.0000   1.0000   1.0000   1.0000   1.0000
     1.0000   1.0000   1.0000   1.0000   1.0000   1.0000   1.0000   1.0000
     1.0000   1.0000   1.0000   1.0000   1.0000   1.0000   1.0000   1.0000
     1.0000   1.0000   1.0000   1.0000   1.0000   1.0000   1.0000   1.0000
     1.0000   1.0000   1.0000   1.0000   1.0000   1.0000   1.0000   1.0000
     1.0000   1.0000   1.0000   1.0000   1.0000   1.0000   1.0000   1.0000
     1.0000   1.0000   1.0000   1.0000   1.0000   1.0000   1.0000   1.0000
     1.0000   1.0000   1.0000   1.0000   1.0000   1.0000   1.0000   1.0000
     1.0000   1.0000   1.0000   1.0000   1.0000   1.0000   1.0000   1.0000
     1.0000   1.0000   1.0000   1.0000   1.0000   1.0000   1.0000   1.0000
     1.0000   1.0000   1.0000   1.0000   1.0000   1.0000   1.0000   1.0000
     1.0000   1.0000   1.0000   1.0000   1.0000   1.0000   1.0000   1.0000
     1.0000   1.0000   1.0000   1.0000   1.0000   1.0000   1.0000   1.0000
     1.0000   1.0000   1.0000   1.0000   1.0000   1.0000   1.0000   1.0000
     1.0000   1.0000   1.0000   1.0000   1.0000   1.0000   1.0000   1.0000
     1.0000   1.0000   1.0000   1.0000   1.0000   1.0000   1.0000   1.0000
     1.0000   1.0000   1.0000   1.0000   1.0000   1.0000   1.0000   1.0000
     1.0000   1.0000   1.0000   1.0000   1.0000   1.0000   1.0000   1.0000
     1.0000   1.0000   1.0000   1.0000   1.0000   1.0000   1.0000   1.0000
     1.0000   1.0000   1.0000   1.0000   1.0000   1.0000   1.0000   1.0000
     1.0000   1.0000   1.0000   1.0000   1.0000   1.0000   1.0000   1.0000
     1.0000   1.0000   1.0000   1.0000   1.0000   1.0000   1.0000   1.0000
     1.0000   1.0000   1.0000   1.0000   1.0000   1.0000   1.0000   1.0000
     1.0000   1.0000   1.0000   1.0000   1.0000   1.0000   1.0000   1.0000
     1.0000   1.0000   1.0000   1.0000   1.0000   1.0000   1.0000   1.0000
     1.0000   1.0000   1.0000   1.0000   1.0000   1.0000   1.0000   1.0000
     1.0000   1.0000   1.0000   1.0000   1.0000   1.0000   1.0000   1.0000
     1.0000   1.0000   1.0000   1.0000   1.0000   1.0000   1.0000   1.0000
     1.0000   1.0000   1.0000   1.0000   1.0000   1.0000   1.0000   1.0000
     1.0000   1.0000   1.0000   1.0000   1.0000   1.0000   1.0000   1.0000
     1.0000   1.0000   1.0000   1.0000   1.0000   1.0000   1.0000   1.0000
     1.0000   1.0000   1.0000   1.0000   1.0000   1.0000   1.0000   1.0000
     1.0000   1.0000   1.0000   1.0000   1.0000   1.0000   1.0000   1.0000
     1.0000   1.0000   1.0000   1.0000   1.0000   1.0000   1.0000   1.0000
     1.0000   1.0000   1.0000   1.0000   1.0000   1.0000   1.0000   1.0000
     1.0000   1.0000   1.0000   1.0000   1.0000   1.0000   1.0000   1.0000
     1.0000   1.0000   1.0000   1.0000   1.0000   1.0000   1.0000   1.0000
     1.0000   1.0000   1.0000   1.0000   1.0000   1.0000   1.0000   1.0000
     1.0000   1.0000   1.0000   1.0000   1.0000   1.0000   1.0000   1.0000
     1.0000   1.0000   1.0000   1.0000   1.0000   1.0000   1.0000   1.0000
     1.0000   1.0000   1.0000   1.0000   1.0000   1.0000   1.0000   1.0000
     1.0000   1.0000   1.0000   1.0000   1.0000   1.0000   1.0000   1.0000
     1.0000   1.0000   1.0000   1.0000   1.0000   1.0000   1.0000   1.0000
     1.0000   1.0000   1.0000   1.0000   1.0000   1.0000   1.0000   1.0000
     1.0000   1.0000   1.0000   1.0000   1.0000   1.0000   1.0000   1.0000
     1.0000   1.0000   1.0000   1.0000   1.0000   1.0000   1.0000   1.0000
     1.0000   1.0000   1.0000   1.0000   1.0000   1.0000   1.0000   1.0000
     1.0000   1.0000   1.0000   1.0000   1.0000   1.0000   1.0000   1.0000
     1.0000   1.0000   1.0000   1.0000   1.0000   1.0000   1.0000   1.0000
     1.0000   1.0000   1.0000   1.0000   1.0000   1.0000   1.0000   1.0000
     1.0000   1.0000   1.0000   1.0000   1.0000   1.0000   1.0000   1.0000
     1.0000   1.0000   1.0000   1.0000   1.0000   1.0000   1.0000   1.0000
     1.0000   1.0000   1.0000   1.0000   1.0000   1.0000   1.0000   1.0000
     1.0000   1.0000   1.0000   1.0000   1.0000   1.0000   1.0000   1.0000
     1.0000   1.0000   1.0000   1.0000   1.0000   1.0000   1.0000   1.0000
     1.0000   1.0000   1.0000   1.0000   1.0000   1.0000   1.0000   1.0000
     1.0000   1.0000   1.0000   1.0000   1.0000   1.0000   1.0000   1.0000
     1.0000   1.0000   1.0000   1.0000

          k =-0.5000-0.5000-0.5000 ( 90056 PWs)   bands (ev):

   -45.8412 -45.7981 -45.7981 -45.7976 -45.7975 -45.7930 -45.7924 -45.7924
   -45.7918 -45.7888 -45.7886 -45.7886 -45.7883 -45.7878 -45.7878 -45.7877
   -45.7872 -45.7861 -45.7847 -45.7842 -45.7842 -45.7837 -45.7789 -45.7789
   -45.7784 -45.7783 -45.7341 -22.2378 -22.2308 -22.2308 -22.2057 -22.2057
   -22.2039 -22.2039 -22.2012 -22.2012 -22.2006 -22.1998 -22.1994 -22.1994
   -22.1988 -22.1988 -22.1987 -22.1981 -22.1981 -22.1964 -22.1964 -22.1962
   -22.1935 -22.1935 -22.1920 -22.1920 -22.1838 -22.1838 -22.1799 -22.1799
   -22.1716 -22.1671 -22.1666 -22.1641 -22.1634 -22.1625 -22.1625 -22.1609
   -22.1609 -22.1608 -22.1608 -22.1597 -22.1595 -22.1594 -22.1593 -22.1590
   -22.1575 -22.1575 -22.1564 -22.1564 -22.1564 -22.1564 -22.1560 -22.1558
   -22.1558 -22.1553 -22.1553 -22.1547 -22.1543 -22.1543 -22.1537 -22.1537
   -22.1534 -22.1534 -22.1527 -22.1519 -22.1519 -22.1509 -22.1507 -22.1504
   -22.1504 -22.1494 -22.1491 -22.1490 -22.1485 -22.1475 -22.1475 -22.1447
   -22.1444 -22.1130 -22.1130 -22.1053 -14.1578 -14.1458 -14.1458 -14.1409
   -14.1336 -14.1309 -14.1309 -14.1232 -14.0681 -14.0681 -14.0639 -14.0537
   -14.0515 -14.0514 -14.0514 -14.0494 -14.0449 -14.0437 -14.0379 -14.0379
   -14.0017 -13.9897 -13.9896 -13.9845 -13.9845 -13.9769 -13.9306  -6.4390
    -6.3909  -6.3887  -6.3887  -6.3867  -6.3847  -6.3847  -6.3844  -6.3802
    -6.3802  -6.3776  -6.3665  -6.3553  -6.3444  -6.3444  -6.3427  -6.3374
    -6.3351  -6.3351  -6.3087  -5.9191  -5.8916  -5.8914  -5.8914  -5.8913
    -5.8797  -5.7445  -5.6769  -5.6681  -5.6681  -5.6655  -5.6655  -5.6646
    -5.6643  -5.6593  -5.6591  -5.6581  -5.6581  -5.6568  -5.6568  -5.6512
    -5.6468  -5.6272  -5.6116  -5.6091  -5.6091  -5.6044  -5.6041  -5.6041
    -5.6028  -5.6006  -5.6006  -5.5974  -5.5934  -5.5839  -5.5839  -5.5748
    -5.5748  -5.5747  -5.5747  -5.5741  -5.5741  -5.5740  -5.5664  -5.5664
    -5.5279  -5.4652  -5.4652  -5.4599  -5.4598  -5.4566  -5.4565  -5.4565
    -5.4532  -5.4531  -5.4473  -5.4473  -5.4345  -5.4252  -5.4252  -5.3830
    -0.1897  -0.1897  -0.1892   0.3551   0.3551   0.3663   0.3672   0.3672
     0.3678   0.3678   0.3688   0.3688   0.3688   0.3805   0.3805   0.4989
     0.4995   0.4995   0.5021   0.5058   0.5060   0.5060   0.5074   0.5100
     0.5106   0.5106   0.5134   0.5595   0.5595   0.5637   0.5651   0.5651
     0.5688   0.5688   0.5695   0.5711   0.5728   0.5728   0.5756   0.5774
     0.5780   0.5868   0.5868   0.6468   0.6545   0.6545   0.6547   0.6551
     0.6618   0.7582   0.7653   0.7692   0.7692   0.7749   0.7749   0.7751
     0.7755   0.7814   0.7814   0.7854   0.7903   0.8963   0.9020   0.9041
     0.9041   0.9053   0.9053   0.9063   0.9064   0.9088   0.9088   0.9108
     0.9158   0.9985   0.9987   0.9987   1.0025   1.0054   1.0081   1.0081
     1.0082   5.8973   6.0690   6.0793   6.0802   6.0802   6.0802   6.0885
     6.2964   6.3007   6.3063   6.3071   6.3071   6.3106   6.3107   6.3107
     6.3142   6.3142   6.3213   6.3217   6.5314   6.5342   6.5413   6.5413
     6.5420   6.5463   6.5533   6.5604   6.7867   6.7894   6.7894   6.7928
     6.7928   6.7991   7.1692   7.1692   7.1754   7.1795   7.1834   7.1851
     7.1851   7.1859   7.1989   7.1989   7.2086   7.2110   7.2128   7.2128
     7.2130   7.2138   7.2145   7.2172   7.2285   7.2285   7.4760   7.4880
     7.4880   7.4939   7.4963   7.4963   7.4965   7.4967   7.4985   7.5022
     7.5022   7.5063   7.5876   7.5980   7.5980   7.6023   7.6035   7.6035
     7.6038   7.6041   7.6060   7.6097   7.6097   7.6231   7.7587   7.7758
     7.7758   7.7767   7.7811   7.7843   7.7843   7.7848   7.7850   7.7850
     7.7852   7.7889   7.7939   7.7941   7.7941   7.8192   7.8202   7.8202
     7.8296   7.8296   7.8323   7.8324   7.8324   7.8324   7.8332   7.8332
     7.8404   7.8404   8.0167   8.0173   8.0173   8.0299   8.0315   8.0321
     8.0321   8.0362   8.0380   8.0410   8.0410   8.0410   8.0425   8.0441
     8.0457   8.0525   8.0541   8.0541   8.0695   8.0735   8.0735   8.3630
     8.3630   8.3816   8.3822   8.3841   8.3869   8.3873   8.3873   8.3876
     8.3876   8.3877   8.3905   8.3928   8.3937   8.4123   8.4123   8.7897
     8.7897   8.7934   8.8043   8.8046   8.8046   8.8047   8.8051   8.8062
     8.8151   8.8151   8.8154   8.8386   8.8386   8.8446   8.8449   8.8488
     8.8545   8.8588   8.8588   9.3962   9.3962   9.3982   9.4077   9.4137
     9.4137   9.4138   9.4138   9.4208   9.4216   9.4216   9.4321   9.4790
     9.4790   9.4962   9.4981   9.5001   9.5005   9.5005   9.5006   9.5034
     9.5047   9.5117   9.5117   9.5366   9.5366   9.5472   9.5492   9.5509
     9.5511   9.5511   9.5514   9.5529   9.5552   9.5646   9.5646   9.5803
     9.5803   9.5839   9.5847   9.5886   9.5888   9.6050   9.6050   9.7302
     9.7302   9.7450   9.7450   9.7452   9.7453   9.7454   9.7455   9.7456
     9.7456   9.7631   9.7631   9.8394   9.8441   9.8441   9.8569   9.8588
     9.8607   9.8607   9.8610   9.8615   9.8621   9.8621   9.8645   9.8658
     9.8872   9.8882   9.8882  10.3944  10.4012  10.4012  10.4043  10.4043
    10.4071  10.4659  10.4661  10.4661

     occupation numbers 
     1.0000   1.0000   1.0000   1.0000   1.0000   1.0000   1.0000   1.0000
     1.0000   1.0000   1.0000   1.0000   1.0000   1.0000   1.0000   1.0000
     1.0000   1.0000   1.0000   1.0000   1.0000   1.0000   1.0000   1.0000
     1.0000   1.0000   1.0000   1.0000   1.0000   1.0000   1.0000   1.0000
     1.0000   1.0000   1.0000   1.0000   1.0000   1.0000   1.0000   1.0000
     1.0000   1.0000   1.0000   1.0000   1.0000   1.0000   1.0000   1.0000
     1.0000   1.0000   1.0000   1.0000   1.0000   1.0000   1.0000   1.0000
     1.0000   1.0000   1.0000   1.0000   1.0000   1.0000   1.0000   1.0000
     1.0000   1.0000   1.0000   1.0000   1.0000   1.0000   1.0000   1.0000
     1.0000   1.0000   1.0000   1.0000   1.0000   1.0000   1.0000   1.0000
     1.0000   1.0000   1.0000   1.0000   1.0000   1.0000   1.0000   1.0000
     1.0000   1.0000   1.0000   1.0000   1.0000   1.0000   1.0000   1.0000
     1.0000   1.0000   1.0000   1.0000   1.0000   1.0000   1.0000   1.0000
     1.0000   1.0000   1.0000   1.0000   1.0000   1.0000   1.0000   1.0000
     1.0000   1.0000   1.0000   1.0000   1.0000   1.0000   1.0000   1.0000
     1.0000   1.0000   1.0000   1.0000   1.0000   1.0000   1.0000   1.0000
     1.0000   1.0000   1.0000   1.0000   1.0000   1.0000   1.0000   1.0000
     1.0000   1.0000   1.0000   1.0000   1.0000   1.0000   1.0000   1.0000
     1.0000   1.0000   1.0000   1.0000   1.0000   1.0000   1.0000   1.0000
     1.0000   1.0000   1.0000   1.0000   1.0000   1.0000   1.0000   1.0000
[...]
     atom   58 type  2   force =     0.00000000    0.00000000    0.00000000
     atom   59 type  2   force =     0.00000000    0.00000000    0.00000000
     atom   60 type  2   force =     0.00000000    0.00000000    0.00000000
     atom   61 type  1   force =     0.00000000    0.00000000    0.00000000
     atom   62 type  3   force =     0.00000000    0.00000000    0.00000000
     atom   63 type  2   force =     0.00000000    0.00000000    0.00000000
     atom   64 type  2   force =     0.00000000    0.00000000    0.00000000
     atom   65 type  2   force =     0.00000000    0.00000000    0.00000000
     atom   66 type  1   force =     0.00000000    0.00000000    0.00000000
     atom   67 type  3   force =     0.00000000    0.00000000    0.00000000
     atom   68 type  2   force =     0.00000000    0.00000000    0.00000000
     atom   69 type  2   force =     0.00000000    0.00000000    0.00000000
     atom   70 type  2   force =     0.00000000    0.00000000    0.00000000
     atom   71 type  1   force =     0.00000000    0.00000000    0.00000000
     atom   72 type  3   force =     0.00000000    0.00000000    0.00000000
     atom   73 type  2   force =     0.00000000    0.00000000    0.00000000
     atom   74 type  2   force =     0.00000000    0.00000000    0.00000000
     atom   75 type  2   force =     0.00000000    0.00000000    0.00000000
     atom   76 type  1   force =     0.00000000    0.00000000    0.00000000
     atom   77 type  3   force =     0.00000000    0.00000000    0.00000000
     atom   78 type  2   force =     0.00000000    0.00000000    0.00000000
     atom   79 type  2   force =     0.00000000    0.00000000    0.00000000
     atom   80 type  2   force =     0.00000000    0.00000000    0.00000000
     atom   81 type  1   force =     0.00000000    0.00000000    0.00000000
     atom   82 type  3   force =     0.00000000    0.00000000    0.00000000
     atom   83 type  2   force =     0.00000000    0.00000000    0.00000000
     atom   84 type  2   force =     0.00000000    0.00000000    0.00000000
     atom   85 type  2   force =     0.00000000    0.00000000    0.00000000
     atom   86 type  1   force =     0.00000000    0.00000000    0.00000000
     atom   87 type  3   force =     0.00000000    0.00000000    0.00000000
     atom   88 type  2   force =     0.00000000    0.00000000    0.00000000
     atom   89 type  2   force =     0.00000000    0.00000000    0.00000000
     atom   90 type  2   force =     0.00000000    0.00000000    0.00000000
     atom   91 type  1   force =     0.00000000    0.00000000    0.00000000
     atom   92 type  3   force =     0.00000000    0.00000000    0.00000000
     atom   93 type  2   force =     0.00000000    0.00000000    0.00000000
     atom   94 type  2   force =     0.00000000    0.00000000    0.00000000
     atom   95 type  2   force =     0.00000000    0.00000000    0.00000000
     atom   96 type  1   force =     0.00000000    0.00000000    0.00000000
     atom   97 type  3   force =     0.00000000    0.00000000    0.00000000
     atom   98 type  2   force =     0.00000000    0.00000000    0.00000000
     atom   99 type  2   force =     0.00000000    0.00000000    0.00000000
     atom  100 type  2   force =     0.00000000    0.00000000    0.00000000
     atom  101 type  1   force =     0.00000000    0.00000000    0.00000000
     atom  102 type  3   force =     0.00000000    0.00000000    0.00000000
     atom  103 type  2   force =     0.00000000    0.00000000    0.00000000
     atom  104 type  2   force =     0.00000000    0.00000000    0.00000000
     atom  105 type  2   force =     0.00000000    0.00000000    0.00000000
     atom  106 type  1   force =     0.00000000    0.00000000    0.00000000
     atom  107 type  3   force =     0.00000000    0.00000000    0.00000000
     atom  108 type  2   force =     0.00000000    0.00000000    0.00000000
     atom  109 type  2   force =     0.00000000    0.00000000    0.00000000
     atom  110 type  2   force =     0.00000000    0.00000000    0.00000000
     atom  111 type  1   force =     0.00000000    0.00000000    0.00000000
     atom  112 type  3   force =     0.00000000    0.00000000    0.00000000
     atom  113 type  2   force =     0.00000000    0.00000000    0.00000000
     atom  114 type  2   force =     0.00000000    0.00000000    0.00000000
     atom  115 type  2   force =     0.00000000    0.00000000    0.00000000
     atom  116 type  1   force =     0.00000000    0.00000000    0.00000000
     atom  117 type  3   force =     0.00000000    0.00000000    0.00000000
     atom  118 type  2   force =     0.00000000    0.00000000    0.00000000
     atom  119 type  2   force =     0.00000000    0.00000000    0.00000000
     atom  120 type  2   force =     0.00000000    0.00000000    0.00000000
     atom  121 type  1   force =     0.00000000    0.00000000    0.00000000
     atom  122 type  3   force =     0.00000000    0.00000000    0.00000000
     atom  123 type  2   force =     0.00000000    0.00000000    0.00000000
     atom  124 type  2   force =     0.00000000    0.00000000    0.00000000
     atom  125 type  2   force =     0.00000000    0.00000000    0.00000000
     atom  126 type  1   force =     0.00000000    0.00000000    0.00000000
     atom  127 type  3   force =     0.00000000    0.00000000    0.00000000
     atom  128 type  2   force =     0.00000000    0.00000000    0.00000000
     atom  129 type  2   force =     0.00000000    0.00000000    0.00000000
     atom  130 type  2   force =     0.00000000    0.00000000    0.00000000
     atom  131 type  1   force =     0.00000000    0.00000000    0.00000000
     atom  132 type  3   force =     0.00000000    0.00000000    0.00000000
     atom  133 type  2   force =     0.00000000    0.00000000    0.00000000
     atom  134 type  2   force =     0.00000000    0.00000000    0.00000000
     atom  135 type  2   force =     0.00000000    0.00000000    0.00000000
     The SCF correction term to forces
     atom    1 type  1   force =    -0.00000076   -0.00000036   -0.00000036
     atom    2 type  3   force =    -0.00000054   -0.00000000    0.00000000
     atom    3 type  2   force =    -0.00000024   -0.00000000   -0.00000000
     atom    4 type  2   force =    -0.00000080    0.00000168    0.00000000
     atom    5 type  2   force =    -0.00000080    0.00000000    0.00000168
     atom    6 type  1   force =    -0.00000094   -0.00000069    0.00000000
     atom    7 type  3   force =    -0.00000296   -0.00000000    0.00000073
     atom    8 type  2   force =    -0.00000099   -0.00000000   -0.00000010
     atom    9 type  2   force =    -0.00000084   -0.00000154   -0.00000008
     atom   10 type  2   force =    -0.00000096    0.00000000   -0.00000000
     atom   11 type  1   force =    -0.00000076   -0.00000036    0.00000036
     atom   12 type  3   force =    -0.00000296   -0.00000000   -0.00000073
     atom   13 type  2   force =    -0.00000099   -0.00000000    0.00000010
     atom   14 type  2   force =    -0.00000084   -0.00000154    0.00000008
     atom   15 type  2   force =    -0.00000080   -0.00000000   -0.00000168
     atom   16 type  1   force =    -0.00000094    0.00000000   -0.00000069
     atom   17 type  3   force =    -0.00000296    0.00000073   -0.00000000
     atom   18 type  2   force =    -0.00000099   -0.00000010   -0.00000000
     atom   19 type  2   force =    -0.00000096    0.00000000    0.00000000
     atom   20 type  2   force =    -0.00000084   -0.00000008   -0.00000154
     atom   21 type  1   force =     0.00000080   -0.00000000    0.00000000
     atom   22 type  3   force =    -0.00000226   -0.00000130   -0.00000130
     atom   23 type  2   force =     0.00000235   -0.00000024   -0.00000024
     atom   24 type  2   force =    -0.00000041    0.00000000   -0.00000065
     atom   25 type  2   force =    -0.00000041   -0.00000065   -0.00000000
     atom   26 type  1   force =    -0.00000094    0.00000000    0.00000069
     atom   27 type  3   force =    -0.00000226   -0.00000130    0.00000130
     atom   28 type  2   force =     0.00000235   -0.00000024    0.00000024
     atom   29 type  2   force =    -0.00000041    0.00000000    0.00000065
     atom   30 type  2   force =    -0.00000084   -0.00000008    0.00000154
     atom   31 type  1   force =    -0.00000076    0.00000036   -0.00000036
     atom   32 type  3   force =    -0.00000296   -0.00000073   -0.00000000
     atom   33 type  2   force =    -0.00000099    0.00000010   -0.00000000
     atom   34 type  2   force =    -0.00000080   -0.00000168    0.00000000
     atom   35 type  2   force =    -0.00000084    0.00000008   -0.00000154
     atom   36 type  1   force =    -0.00000094    0.00000069    0.00000000
     atom   37 type  3   force =    -0.00000226    0.00000130   -0.00000130
     atom   38 type  2   force =     0.00000235    0.00000024   -0.00000024
     atom   39 type  2   force =    -0.00000084    0.00000154   -0.00000008
     atom   40 type  2   force =    -0.00000041    0.00000065   -0.00000000
     atom   41 type  1   force =    -0.00000076    0.00000036    0.00000036
     atom   42 type  3   force =    -0.00000226    0.00000130    0.00000130
     atom   43 type  2   force =     0.00000235    0.00000024    0.00000024
     atom   44 type  2   force =    -0.00000084    0.00000154    0.00000008
     atom   45 type  2   force =    -0.00000084    0.00000008    0.00000154
     atom   46 type  1   force =     0.00000041    0.00000039    0.00000039
     atom   47 type  3   force =    -0.00000454   -0.00000000    0.00000000
     atom   48 type  2   force =     0.00000060   -0.00000000   -0.00000000
     atom   49 type  2   force =    -0.00000080    0.00000170   -0.00000000
     atom   50 type  2   force =    -0.00000080    0.00000000    0.00000170
     atom   51 type  1   force =     0.00000028   -0.00000044    0.00000000
     atom   52 type  3   force =    -0.00000045   -0.00000000   -0.00000163
     atom   53 type  2   force =     0.00000051   -0.00000000   -0.00000008
     atom   54 type  2   force =    -0.00000021    0.00000185   -0.00000019
     atom   55 type  2   force =    -0.00000024    0.00000000   -0.00000000
     atom   56 type  1   force =     0.00000041    0.00000039   -0.00000039
     atom   57 type  3   force =    -0.00000045   -0.00000000    0.00000163
     atom   58 type  2   force =     0.00000051   -0.00000000    0.00000008
     atom   59 type  2   force =    -0.00000021    0.00000185    0.00000019
     atom   60 type  2   force =    -0.00000080    0.00000000   -0.00000170
     atom   61 type  1   force =     0.00000028   -0.00000000   -0.00000044
     atom   62 type  3   force =    -0.00000045   -0.00000163    0.00000000
     atom   63 type  2   force =     0.00000051   -0.00000008   -0.00000000
     atom   64 type  2   force =    -0.00000024    0.00000000    0.00000000
     atom   65 type  2   force =    -0.00000021   -0.00000019    0.00000185
     atom   66 type  1   force =    -0.00000122   -0.00000000    0.00000000
     atom   67 type  3   force =     0.00000000   -0.00000041   -0.00000041
     atom   68 type  2   force =    -0.00000325   -0.00000016   -0.00000016
     atom   69 type  2   force =    -0.00000011    0.00000000    0.00000002
     atom   70 type  2   force =    -0.00000011    0.00000002   -0.00000000
     atom   71 type  1   force =     0.00000028    0.00000000    0.00000044
     atom   72 type  3   force =     0.00000000   -0.00000041    0.00000041
     atom   73 type  2   force =    -0.00000325   -0.00000016    0.00000016
     atom   74 type  2   force =    -0.00000011    0.00000000   -0.00000002
     atom   75 type  2   force =    -0.00000021   -0.00000019   -0.00000185
     atom   76 type  1   force =     0.00000041   -0.00000039    0.00000039
     atom   77 type  3   force =    -0.00000045    0.00000163   -0.00000000
     atom   78 type  2   force =     0.00000051    0.00000008   -0.00000000
     atom   79 type  2   force =    -0.00000080   -0.00000170    0.00000000
     atom   80 type  2   force =    -0.00000021    0.00000019    0.00000185
     atom   81 type  1   force =     0.00000028    0.00000044    0.00000000
     atom   82 type  3   force =     0.00000000    0.00000041   -0.00000041
     atom   83 type  2   force =    -0.00000325    0.00000016   -0.00000016
     atom   84 type  2   force =    -0.00000021   -0.00000185   -0.00000019
     atom   85 type  2   force =    -0.00000011   -0.00000002   -0.00000000
     atom   86 type  1   force =     0.00000041   -0.00000039   -0.00000039
     atom   87 type  3   force =     0.00000000    0.00000041    0.00000041
     atom   88 type  2   force =    -0.00000325    0.00000016    0.00000016
     atom   89 type  2   force =    -0.00000021   -0.00000185    0.00000019
     atom   90 type  2   force =    -0.00000021    0.00000019   -0.00000185
     atom   91 type  1   force =     0.00000030   -0.00000043   -0.00000043
     atom   92 type  3   force =     0.00000534   -0.00000000    0.00000000
     atom   93 type  2   force =    -0.00000017   -0.00000000   -0.00000000
     atom   94 type  2   force =     0.00000158    0.00000167    0.00000000
     atom   95 type  2   force =     0.00000158    0.00000000    0.00000167
     atom   96 type  1   force =     0.00000063   -0.00000223    0.00000000
     atom   97 type  3   force =     0.00000351   -0.00000000   -0.00000046
     atom   98 type  2   force =     0.00000043   -0.00000000   -0.00000001
     atom   99 type  2   force =     0.00000108   -0.00000199   -0.00000021
     atom  100 type  2   force =     0.00000127    0.00000000   -0.00000000
     atom  101 type  1   force =     0.00000030   -0.00000043    0.00000043
     atom  102 type  3   force =     0.00000351   -0.00000000    0.00000046
     atom  103 type  2   force =     0.00000043   -0.00000000    0.00000001
     atom  104 type  2   force =     0.00000108   -0.00000199    0.00000021
     atom  105 type  2   force =     0.00000158   -0.00000000   -0.00000167
     atom  106 type  1   force =     0.00000063    0.00000000   -0.00000223
     atom  107 type  3   force =     0.00000351   -0.00000046   -0.00000000
     atom  108 type  2   force =     0.00000043   -0.00000001   -0.00000000
     atom  109 type  2   force =     0.00000127    0.00000000    0.00000000
     atom  110 type  2   force =     0.00000108   -0.00000021   -0.00000199
     atom  111 type  1   force =     0.00000038   -0.00000000    0.00000000
     atom  112 type  3   force =     0.00000234   -0.00000082   -0.00000082
     atom  113 type  2   force =     0.00000085   -0.00000062   -0.00000062
     atom  114 type  2   force =     0.00000053   -0.00000000   -0.00000050
     atom  115 type  2   force =     0.00000053   -0.00000050   -0.00000000
     atom  116 type  1   force =     0.00000063    0.00000000    0.00000223
     atom  117 type  3   force =     0.00000234   -0.00000082    0.00000082
     atom  118 type  2   force =     0.00000085   -0.00000062    0.00000062
     atom  119 type  2   force =     0.00000053    0.00000000    0.00000050
     atom  120 type  2   force =     0.00000108   -0.00000021    0.00000199
     atom  121 type  1   force =     0.00000030    0.00000043   -0.00000043
     atom  122 type  3   force =     0.00000351    0.00000046   -0.00000000
     atom  123 type  2   force =     0.00000043    0.00000001   -0.00000000
     atom  124 type  2   force =     0.00000158   -0.00000167    0.00000000
     atom  125 type  2   force =     0.00000108    0.00000021   -0.00000199
     atom  126 type  1   force =     0.00000063    0.00000223    0.00000000
     atom  127 type  3   force =     0.00000234    0.00000082   -0.00000082
     atom  128 type  2   force =     0.00000085    0.00000062   -0.00000062
     atom  129 type  2   force =     0.00000108    0.00000199   -0.00000021
     atom  130 type  2   force =     0.00000053    0.00000050   -0.00000000
     atom  131 type  1   force =     0.00000030    0.00000043    0.00000043
     atom  132 type  3   force =     0.00000234    0.00000082    0.00000082
     atom  133 type  2   force =     0.00000085    0.00000062    0.00000062
     atom  134 type  2   force =     0.00000108    0.00000199    0.00000021
     atom  135 type  2   force =     0.00000108    0.00000021    0.00000199

     Total force =     0.041150     Total SCF correction =     0.000022
 
     init_run     :     15.24s CPU     17.72s WALL (       1 calls)
     electrons    :   1198.63s CPU   1236.54s WALL (       1 calls)
     forces       :      9.78s CPU     10.51s WALL (       1 calls)

     Called by init_run:
     wfcinit      :     11.80s CPU     12.86s WALL (       1 calls)
     wfcinit:atom :      0.07s CPU      0.14s WALL (       1 calls)
     wfcinit:wfcr :     11.54s CPU     12.22s WALL (       1 calls)
     potinit      :      0.99s CPU      1.34s WALL (       1 calls)
     hinit0       :      0.51s CPU      1.01s WALL (       1 calls)

     Called by electrons:
     c_bands      :   1037.00s CPU   1059.80s WALL (      34 calls)
     sum_band     :    116.90s CPU    123.97s WALL (      34 calls)
     v_of_rho     :     26.04s CPU     28.20s WALL (      35 calls)
     v_h          :      2.79s CPU      2.91s WALL (      35 calls)
     v_xc         :     23.92s CPU     25.99s WALL (      36 calls)
     newd         :      9.34s CPU     14.74s WALL (      35 calls)
     mix_rho      :      6.42s CPU      7.05s WALL (      34 calls)

     Called by c_bands:
     init_us_2    :     10.84s CPU     11.10s WALL (      69 calls)
     cegterg      :    934.04s CPU    956.28s WALL (      34 calls)

     Called by sum_band:
     sum_band:wei :      0.04s CPU      0.06s WALL (      34 calls)
     sum_band:loo :    103.94s CPU    104.26s WALL (      34 calls)
     sum_band:buf :      0.00s CPU      0.00s WALL (      34 calls)
     sum_band:ini :      5.42s CPU      5.48s WALL (      34 calls)
     sum_band:cal :     42.27s CPU     42.30s WALL (      34 calls)
     sum_band:bec :      0.29s CPU      0.30s WALL (      34 calls)
     addusdens    :      7.10s CPU     13.49s WALL (      34 calls)
     addusd:skk   :      0.33s CPU      1.48s WALL (     102 calls)
     addusd:dgemm :      2.62s CPU      5.35s WALL (     102 calls)
     addusd:qvan2 :      3.36s CPU      3.37s WALL (     102 calls)

     Called by *egterg:
     cdiaghg      :     41.17s CPU     44.43s WALL (     207 calls)
     cegterg:over :     79.36s CPU     79.60s WALL (     173 calls)
     cegterg:upda :     71.54s CPU     73.73s WALL (     173 calls)
     cegterg:last :    142.35s CPU    142.73s WALL (      77 calls)
     cdiaghg:chol :      3.42s CPU      3.69s WALL (     207 calls)
     cdiaghg:inve :      3.22s CPU      3.24s WALL (     207 calls)
     cdiaghg:para :     10.46s CPU     12.80s WALL (     414 calls)
     h_psi        :    467.39s CPU    474.22s WALL (     208 calls)
     s_psi        :    114.87s CPU    115.63s WALL (     208 calls)
     g_psi        :      2.11s CPU      2.11s WALL (     173 calls)

     Called by h_psi:
     h_psi:calbec :    123.69s CPU    123.99s WALL (     208 calls)
     vloc_psi     :    224.24s CPU    225.25s WALL (     208 calls)
     add_vuspsi   :    116.99s CPU    119.27s WALL (     208 calls)

     General routines
     calbec       :    170.85s CPU    171.18s WALL (     246 calls)
     fft          :     24.66s CPU     26.37s WALL (     464 calls)
     ffts         :      0.47s CPU      0.49s WALL (      69 calls)
     fftw         :    215.33s CPU    216.28s WALL (  116342 calls)
     interpolate  :      2.18s CPU      2.31s WALL (      35 calls)
 
     Parallel routines
     fft_scatt_xy :     38.59s CPU     38.72s WALL (  116875 calls)
     fft_scatt_yz :     84.37s CPU     86.32s WALL (  116875 calls)
 
     PWSCF        :  20m25.21s CPU  21m10.16s WALL

 
   This run was terminated on:  14:26:51  25Feb2022            

=------------------------------------------------------------------------------=
   JOB DONE.
=------------------------------------------------------------------------------=
