SIRIUS 6.5.7, git hash: https://api.github.com/repos/electronic-structure/SIRIUS/git/ref/tags/v6.5.7

     Program PWSCF v.6.5 starts on  3Nov2021 at  0:56:18 

     This program is part of the open-source Quantum ESPRESSO suite
     for quantum simulation of materials; please cite
         "P. Giannozzi et al., J. Phys.:Condens. Matter 21 395502 (2009);
         "P. Giannozzi et al., J. Phys.:Condens. Matter 29 465901 (2017);
          URL http://www.quantum-espresso.org", 
     in publications or presentations arising from this work. More details at
     http://www.quantum-espresso.org/quote

     Parallel version (MPI & OpenMP), running on     384 processor cores
     Number of MPI processes:                32
     Threads/MPI process:                    12

     MPI processes distributed on    32 nodes
     K-points division:     npool     =       4
     R & G space division:  proc/nbgrp/npool/nimage =       8
     Fft bands division:     nmany     =       1
     Reading input from aiida.in
Warning: card &IONS ignored
Warning: card / ignored
Warning: card &CELL ignored
Warning: card / ignored

     Current dimensions of program PWSCF are:
     Max number of different atomic species (ntypx) = 10
     Max number of k-points (npk) =  40000
     Max angular momentum in pseudopotentials (lmaxx) =  3
     Message from routine read_upf::
     Pseudo file Ba.pbesol-spn-rrkjus_psl.0.2.3.UPF has been fixed on the fly.
To avoid this message in the future, permanently fix 
 your pseudo files following these instructions: 
https://gitlab.com/QEF/q-e/blob/master/upftools/how_to_fix_upf.md
     Message from routine read_upf::
     Pseudo file Ti.pbesol-spn-rrkjus_psl.0.2.3.UPF has been fixed on the fly.
To avoid this message in the future, permanently fix 
 your pseudo files following these instructions: 
https://gitlab.com/QEF/q-e/blob/master/upftools/how_to_fix_upf.md
     Message from routine read_upf::
     Pseudo file O.pbesol-n-rrkjus_psl.0.1.UPF has been fixed on the fly.
To avoid this message in the future, permanently fix 
 your pseudo files following these instructions: 
https://gitlab.com/QEF/q-e/blob/master/upftools/how_to_fix_upf.md

     Subspace diagonalization in iterative solution of the eigenvalue problem:
     one sub-group per band group will be used
     scalapack distributed-memory algorithm (size of sub-group:  2*  2 procs)


     Parallelization info
     --------------------
     sticks:   dense  smooth     PW     G-vecs:    dense   smooth      PW
     Min        5447    2179    570               855497   216423   28980
     Max        5448    2180    571               855500   216427   28983
     Sum       43581   17437   4561              6843983  1731393  231855



     bravais-lattice index     =            0
     lattice parameter (alat)  =      30.2117  a.u.
     unit-cell volume          =   27575.5330 (a.u.)^3
     number of atoms/cell      =          320
     number of atomic types    =            3
     number of electrons       =      2560.00
     number of Kohn-Sham states=         1280
     kinetic-energy cutoff     =      60.0000  Ry
     charge density cutoff     =     600.0000  Ry
     convergence threshold     =      1.0E-10
     mixing beta               =       0.3000
     number of iterations used =            8  plain     mixing
     Exchange-correlation= PBESOL
                           (   1   4  10   8   0   0   0)

     celldm(1)=  30.211740  celldm(2)=   0.000000  celldm(3)=   0.000000
     celldm(4)=   0.000000  celldm(5)=   0.000000  celldm(6)=   0.000000

     crystal axes: (cart. coord. in units of alat)
               a(1) = (   0.999997  -0.000279   0.002530 )  
               a(2) = (   0.002523   0.999994   0.002530 )  
               a(3) = (  -0.000279  -0.000279   1.000000 )  

     reciprocal axes: (cart. coord. in units 2 pi/alat)
               b(1) = (  1.000002 -0.002524  0.000279 )  
               b(2) = (  0.000278  1.000005  0.000279 )  
               b(3) = ( -0.002531 -0.002524  0.999999 )  


     PseudoPot. # 1 for Ba read from file:
     ./pseudo/Ba.pbesol-spn-rrkjus_psl.0.2.3.UPF
     MD5 check sum: 790e619c8b62cace47857cba76d8beb9
     Pseudo is Ultrasoft + core correction, Zval = 10.0
     Generated using "atomic" code by A. Dal Corso v.5.0.2 svn rev. 9605
     Using radial grid of 1251 points,  6 beta functions with: 
                l(1) =   0
                l(2) =   0
                l(3) =   1
                l(4) =   1
                l(5) =   2
                l(6) =   2
     Q(r) pseudized with 0 coefficients 


     PseudoPot. # 2 for Ti read from file:
     ./pseudo/Ti.pbesol-spn-rrkjus_psl.0.2.3.UPF
     MD5 check sum: 6a305aeff5ac06e76187d8ed020ead45
     Pseudo is Ultrasoft + core correction, Zval = 12.0
     Generated using "atomic" code by A. Dal Corso v.5.0.2 svn rev. 9605
     Using radial grid of 1177 points,  6 beta functions with: 
                l(1) =   0
                l(2) =   0
                l(3) =   1
                l(4) =   1
                l(5) =   2
                l(6) =   2
     Q(r) pseudized with 0 coefficients 


     PseudoPot. # 3 for O  read from file:
     ./pseudo/O.pbesol-n-rrkjus_psl.0.1.UPF
     MD5 check sum: 31bbd5536f35391d6196718e6b64dc28
     Pseudo is Ultrasoft + core correction, Zval =  6.0
     Generated using "atomic" code by A. Dal Corso v.5.0.2 svn rev. 9605
     Using radial grid of 1095 points,  4 beta functions with: 
                l(1) =   0
                l(2) =   0
                l(3) =   1
                l(4) =   1
     Q(r) pseudized with 0 coefficients 


     atomic species   valence    mass     pseudopotential
        Ba            10.00   137.32700     Ba( 1.00)
        Ti            12.00    47.86700     Ti( 1.00)
        O              6.00    15.99940     O ( 1.00)

     No symmetry found


                                    s                        frac. trans.

      isym =  1     identity                                     

 cryst.   s( 1) = (     1          0          0      )
                  (     0          1          0      )
                  (     0          0          1      )

 cart.    s( 1) = (  1.0000000 -0.0000000 -0.0000000 )
                  (  0.0000000  1.0000000 -0.0000000 )
                  (  0.0000000 -0.0000000  1.0000000 )


   Cartesian axes

     site n.     atom                  positions (alat units)
         1           Ba  tau(   1) = (   1.0015359   0.9993938   1.0050164  )
         2           Ba  tau(   2) = (   0.2522004   0.9996026   1.0031202  )
         3           Ba  tau(   3) = (   0.5021996   0.9995330   1.0037528  )
         4           Ba  tau(   4) = (   0.7521987   0.9994633   1.0043854  )
         5           Ba  tau(   5) = (   1.0003054   0.2493984   1.0031202  )
         6           Ba  tau(   6) = (   0.2503078   0.2496074   1.0012223  )
         7           Ba  tau(   7) = (   0.5003070   0.2495377   1.0018550  )
         8           Ba  tau(   8) = (   0.7503062   0.2494681   1.0024876  )
         9           Ba  tau(   9) = (   1.0009362   0.4993968   1.0037528  )
        10           Ba  tau(  10) = (   0.2509387   0.4996058   1.0018550  )
        11           Ba  tau(  11) = (   0.5009379   0.4995362   1.0024876  )
        12           Ba  tau(  12) = (   0.7509371   0.4994665   1.0031202  )
        13           Ba  tau(  13) = (   1.0015671   0.7493952   1.0043854  )
        14           Ba  tau(  14) = (   0.2515695   0.7496042   1.0024876  )
        15           Ba  tau(  15) = (   0.5015687   0.7495346   1.0031202  )
        16           Ba  tau(  16) = (   0.7515679   0.7494649   1.0037528  )
        17           Ba  tau(  17) = (   1.0024076   0.9996026   0.2550181  )
        18           Ba  tau(  18) = (   0.2524100   0.9998117   0.2531203  )
        19           Ba  tau(  19) = (   0.5024092   0.9997420   0.2537529  )
        20           Ba  tau(  20) = (   0.7524084   0.9996723   0.2543855  )
        21           Ba  tau(  21) = (   1.0005150   0.2496074   0.2531203  )
        22           Ba  tau(  22) = (   0.2505174   0.2498165   0.2512224  )
        23           Ba  tau(  23) = (   0.5005166   0.2497468   0.2518550  )
        24           Ba  tau(  24) = (   0.7505158   0.2496771   0.2524876  )
        25           Ba  tau(  25) = (   1.0011459   0.4996058   0.2537529  )
        26           Ba  tau(  26) = (   0.2511483   0.4998149   0.2518550  )
        27           Ba  tau(  27) = (   0.5011475   0.4997452   0.2524876  )
        28           Ba  tau(  28) = (   0.7511467   0.4996755   0.2531203  )
        29           Ba  tau(  29) = (   1.0017767   0.7496042   0.2543855  )
        30           Ba  tau(  30) = (   0.2517791   0.7498133   0.2524876  )
        31           Ba  tau(  31) = (   0.5017783   0.7497436   0.2531203  )
        32           Ba  tau(  32) = (   0.7517775   0.7496739   0.2537529  )
        33           Ba  tau(  33) = (   1.0023377   0.9995330   0.5050181  )
        34           Ba  tau(  34) = (   0.2523401   0.9997420   0.5031202  )
        35           Ba  tau(  35) = (   0.5023393   0.9996723   0.5037529  )
        36           Ba  tau(  36) = (   0.7523385   0.9996026   0.5043855  )
        37           Ba  tau(  37) = (   1.0004451   0.2495377   0.5031202  )
        38           Ba  tau(  38) = (   0.2504476   0.2497468   0.5012224  )
        39           Ba  tau(  39) = (   0.5004468   0.2496771   0.5018550  )
        40           Ba  tau(  40) = (   0.7504460   0.2496074   0.5024876  )
        41           Ba  tau(  41) = (   1.0010760   0.4995362   0.5037529  )
        42           Ba  tau(  42) = (   0.2510784   0.4997452   0.5018550  )
        43           Ba  tau(  43) = (   0.5010776   0.4996755   0.5024876  )
        44           Ba  tau(  44) = (   0.7510768   0.4996058   0.5031202  )
        45           Ba  tau(  45) = (   1.0017068   0.7495346   0.5043855  )
        46           Ba  tau(  46) = (   0.2517093   0.7497436   0.5024876  )
        47           Ba  tau(  47) = (   0.5017085   0.7496739   0.5031202  )
        48           Ba  tau(  48) = (   0.7517076   0.7496042   0.5037529  )
        49           Ba  tau(  49) = (   1.0022678   0.9994633   0.7550181  )
        50           Ba  tau(  50) = (   0.2522702   0.9996723   0.7531202  )
        51           Ba  tau(  51) = (   0.5022694   0.9996026   0.7537528  )
        52           Ba  tau(  52) = (   0.7522686   0.9995330   0.7543855  )
        53           Ba  tau(  53) = (   1.0003753   0.2494681   0.7531202  )
        54           Ba  tau(  54) = (   0.2503777   0.2496771   0.7512224  )
        55           Ba  tau(  55) = (   0.5003769   0.2496074   0.7518550  )
        56           Ba  tau(  56) = (   0.7503761   0.2495377   0.7524876  )
        57           Ba  tau(  57) = (   1.0010061   0.4994665   0.7537528  )
        58           Ba  tau(  58) = (   0.2510085   0.4996755   0.7518550  )
        59           Ba  tau(  59) = (   0.5010077   0.4996058   0.7524876  )
        60           Ba  tau(  60) = (   0.7510069   0.4995362   0.7531202  )
        61           Ba  tau(  61) = (   1.0016370   0.7494649   0.7543855  )
        62           Ba  tau(  62) = (   0.2516394   0.7496739   0.7524876  )
        63           Ba  tau(  63) = (   0.5016386   0.7496042   0.7531202  )
        64           Ba  tau(  64) = (   0.7516378   0.7495346   0.7537528  )
        65           Ti  tau(  65) = (   0.1223764   0.1220340   0.1227208  )
        66           Ti  tau(  66) = (   0.3723756   0.1219643   0.1233534  )
        67           Ti  tau(  67) = (   0.6223748   0.1218946   0.1239860  )
        68           Ti  tau(  68) = (   0.8723740   0.1218249   0.1246186  )
        69           Ti  tau(  69) = (   0.1230072   0.3720324   0.1233534  )
        70           Ti  tau(  70) = (   0.3730064   0.3719627   0.1239860  )
        71           Ti  tau(  71) = (   0.6230056   0.3718930   0.1246186  )
        72           Ti  tau(  72) = (   0.8730048   0.3718233   0.1252512  )
        73           Ti  tau(  73) = (   0.1236381   0.6220308   0.1239860  )
        74           Ti  tau(  74) = (   0.3736373   0.6219611   0.1246186  )
        75           Ti  tau(  75) = (   0.6236365   0.6218914   0.1252512  )
        76           Ti  tau(  76) = (   0.8736357   0.6218217   0.1258839  )
        77           Ti  tau(  77) = (   0.1242689   0.8720292   0.1246186  )
        78           Ti  tau(  78) = (   0.3742681   0.8719595   0.1252512  )
        79           Ti  tau(  79) = (   0.6242673   0.8718898   0.1258839  )
        80           Ti  tau(  80) = (   0.8742665   0.8718201   0.1265165  )
        81           Ti  tau(  81) = (   0.1223065   0.1219643   0.3727207  )
        82           Ti  tau(  82) = (   0.3723057   0.1218946   0.3733534  )
        83           Ti  tau(  83) = (   0.6223049   0.1218249   0.3739860  )
        84           Ti  tau(  84) = (   0.8723041   0.1217553   0.3746186  )
        85           Ti  tau(  85) = (   0.1229374   0.3719627   0.3733534  )
        86           Ti  tau(  86) = (   0.3729366   0.3718930   0.3739860  )
        87           Ti  tau(  87) = (   0.6229357   0.3718233   0.3746186  )
        88           Ti  tau(  88) = (   0.8729349   0.3717537   0.3752512  )
        89           Ti  tau(  89) = (   0.1235682   0.6219611   0.3739860  )
        90           Ti  tau(  90) = (   0.3735674   0.6218914   0.3746186  )
        91           Ti  tau(  91) = (   0.6235666   0.6218217   0.3752512  )
        92           Ti  tau(  92) = (   0.8735658   0.6217521   0.3758838  )
        93           Ti  tau(  93) = (   0.1241991   0.8719595   0.3746186  )
        94           Ti  tau(  94) = (   0.3741982   0.8718898   0.3752512  )
        95           Ti  tau(  95) = (   0.6241974   0.8718201   0.3758838  )
        96           Ti  tau(  96) = (   0.8741966   0.8717505   0.3765165  )
        97           Ti  tau(  97) = (   0.1222366   0.1218946   0.6227207  )
        98           Ti  tau(  98) = (   0.3722358   0.1218249   0.6233533  )
        99           Ti  tau(  99) = (   0.6222350   0.1217553   0.6239860  )
       100           Ti  tau( 100) = (   0.8722342   0.1216856   0.6246186  )
       101           Ti  tau( 101) = (   0.1228675   0.3718930   0.6233533  )
       102           Ti  tau( 102) = (   0.3728667   0.3718233   0.6239860  )
       103           Ti  tau( 103) = (   0.6228659   0.3717537   0.6246186  )
       104           Ti  tau( 104) = (   0.8728651   0.3716840   0.6252512  )
       105           Ti  tau( 105) = (   0.1234983   0.6218914   0.6239860  )
       106           Ti  tau( 106) = (   0.3734975   0.6218217   0.6246186  )
       107           Ti  tau( 107) = (   0.6234967   0.6217521   0.6252512  )
       108           Ti  tau( 108) = (   0.8734959   0.6216824   0.6258838  )
       109           Ti  tau( 109) = (   0.1241292   0.8718898   0.6246186  )
       110           Ti  tau( 110) = (   0.3741284   0.8718201   0.6252512  )
       111           Ti  tau( 111) = (   0.6241276   0.8717505   0.6258838  )
       112           Ti  tau( 112) = (   0.8741268   0.8716808   0.6265165  )
       113           Ti  tau( 113) = (   0.1221668   0.1218249   0.8727207  )
       114           Ti  tau( 114) = (   0.3721660   0.1217553   0.8733533  )
       115           Ti  tau( 115) = (   0.6221652   0.1216856   0.8739859  )
       116           Ti  tau( 116) = (   0.8721643   0.1216159   0.8746186  )
       117           Ti  tau( 117) = (   0.1227976   0.3718233   0.8733533  )
       118           Ti  tau( 118) = (   0.3727968   0.3717537   0.8739859  )
       119           Ti  tau( 119) = (   0.6227960   0.3716840   0.8746186  )
       120           Ti  tau( 120) = (   0.8727952   0.3716143   0.8752512  )
       121           Ti  tau( 121) = (   0.1234285   0.6218217   0.8739859  )
       122           Ti  tau( 122) = (   0.3734277   0.6217521   0.8746186  )
       123           Ti  tau( 123) = (   0.6234268   0.6216824   0.8752512  )
       124           Ti  tau( 124) = (   0.8734260   0.6216127   0.8758838  )
       125           Ti  tau( 125) = (   0.1240593   0.8718201   0.8746186  )
       126           Ti  tau( 126) = (   0.3740585   0.8717505   0.8752512  )
       127           Ti  tau( 127) = (   0.6240577   0.8716808   0.8758838  )
       128           Ti  tau( 128) = (   0.8740569   0.8716111   0.8765164  )
       129           O   tau( 129) = (   0.0047197   0.1277532   0.1281255  )
       130           O   tau( 130) = (   0.2547189   0.1276836   0.1287581  )
       131           O   tau( 131) = (   0.5047181   0.1276139   0.1293908  )
       132           O   tau( 132) = (   0.7547173   0.1275442   0.1300234  )
       133           O   tau( 133) = (   0.0053506   0.3777516   0.1287581  )
       134           O   tau( 134) = (   0.2553498   0.3776820   0.1293908  )
       135           O   tau( 135) = (   0.5053490   0.3776123   0.1300234  )
       136           O   tau( 136) = (   0.7553482   0.3775426   0.1306560  )
       137           O   tau( 137) = (   0.0059814   0.6277500   0.1293908  )
       138           O   tau( 138) = (   0.2559806   0.6276804   0.1300234  )
       139           O   tau( 139) = (   0.5059798   0.6276107   0.1306560  )
       140           O   tau( 140) = (   0.7559790   0.6275410   0.1312886  )
       141           O   tau( 141) = (   0.0066123   0.8777484   0.1300234  )
       142           O   tau( 142) = (   0.2566115   0.8776788   0.1306560  )
       143           O   tau( 143) = (   0.5066107   0.8776091   0.1312886  )
       144           O   tau( 144) = (   0.7566098   0.8775394   0.1319212  )
       145           O   tau( 145) = (   0.0046499   0.1276836   0.3781255  )
       146           O   tau( 146) = (   0.2546491   0.1276139   0.3787581  )
       147           O   tau( 147) = (   0.5046482   0.1275442   0.3793907  )
       148           O   tau( 148) = (   0.7546474   0.1274745   0.3800234  )
       149           O   tau( 149) = (   0.0052807   0.3776820   0.3787581  )
       150           O   tau( 150) = (   0.2552799   0.3776123   0.3793907  )
       151           O   tau( 151) = (   0.5052791   0.3775426   0.3800234  )
       152           O   tau( 152) = (   0.7552783   0.3774729   0.3806560  )
       153           O   tau( 153) = (   0.0059116   0.6276804   0.3793907  )
       154           O   tau( 154) = (   0.2559107   0.6276107   0.3800234  )
       155           O   tau( 155) = (   0.5059099   0.6275410   0.3806560  )
       156           O   tau( 156) = (   0.7559091   0.6274713   0.3812886  )
       157           O   tau( 157) = (   0.0065424   0.8776788   0.3800234  )
       158           O   tau( 158) = (   0.2565416   0.8776091   0.3806560  )
       159           O   tau( 159) = (   0.5065408   0.8775394   0.3812886  )
       160           O   tau( 160) = (   0.7565400   0.8774697   0.3819212  )
       161           O   tau( 161) = (   0.0045800   0.1276139   0.6281255  )
       162           O   tau( 162) = (   0.2545792   0.1275442   0.6287581  )
       163           O   tau( 163) = (   0.5045784   0.1274745   0.6293907  )
       164           O   tau( 164) = (   0.7545776   0.1274049   0.6300233  )
       165           O   tau( 165) = (   0.0052108   0.3776123   0.6287581  )
       166           O   tau( 166) = (   0.2552100   0.3775426   0.6293907  )
       167           O   tau( 167) = (   0.5052092   0.3774729   0.6300233  )
       168           O   tau( 168) = (   0.7552084   0.3774033   0.6306560  )
       169           O   tau( 169) = (   0.0058417   0.6276107   0.6293907  )
       170           O   tau( 170) = (   0.2558409   0.6275410   0.6300233  )
       171           O   tau( 171) = (   0.5058401   0.6274713   0.6306560  )
       172           O   tau( 172) = (   0.7558393   0.6274017   0.6312886  )
       173           O   tau( 173) = (   0.0064725   0.8776091   0.6300233  )
       174           O   tau( 174) = (   0.2564717   0.8775394   0.6306560  )
       175           O   tau( 175) = (   0.5064709   0.8774697   0.6312886  )
       176           O   tau( 176) = (   0.7564701   0.8774001   0.6319212  )
       177           O   tau( 177) = (   0.0045101   0.1275442   0.8781255  )
       178           O   tau( 178) = (   0.2545093   0.1274745   0.8787581  )
       179           O   tau( 179) = (   0.5045085   0.1274049   0.8793907  )
       180           O   tau( 180) = (   0.7545077   0.1273352   0.8800233  )
       181           O   tau( 181) = (   0.0051410   0.3775426   0.8787581  )
       182           O   tau( 182) = (   0.2551402   0.3774729   0.8793907  )
       183           O   tau( 183) = (   0.5051393   0.3774033   0.8800233  )
       184           O   tau( 184) = (   0.7551385   0.3773336   0.8806559  )
       185           O   tau( 185) = (   0.0057718   0.6275410   0.8793907  )
       186           O   tau( 186) = (   0.2557710   0.6274713   0.8800233  )
       187           O   tau( 187) = (   0.5057702   0.6274017   0.8806559  )
       188           O   tau( 188) = (   0.7557694   0.6273320   0.8812886  )
       189           O   tau( 189) = (   0.0064027   0.8775394   0.8800233  )
       190           O   tau( 190) = (   0.2564019   0.8774697   0.8806559  )
       191           O   tau( 191) = (   0.5064010   0.8774001   0.8812886  )
       192           O   tau( 192) = (   0.7564002   0.8773304   0.8819212  )
       193           O   tau( 193) = (   0.1277660   0.0043617   0.1281255  )
       194           O   tau( 194) = (   0.3777651   0.0042921   0.1287581  )
       195           O   tau( 195) = (   0.6277643   0.0042224   0.1293907  )
       196           O   tau( 196) = (   0.8777635   0.0041527   0.1300233  )
       197           O   tau( 197) = (   0.1283968   0.2543601   0.1287581  )
       198           O   tau( 198) = (   0.3783960   0.2542905   0.1293907  )
       199           O   tau( 199) = (   0.6283952   0.2542208   0.1300233  )
       200           O   tau( 200) = (   0.8783944   0.2541511   0.1306560  )
       201           O   tau( 201) = (   0.1290277   0.5043585   0.1293907  )
       202           O   tau( 202) = (   0.3790268   0.5042889   0.1300233  )
       203           O   tau( 203) = (   0.6290260   0.5042192   0.1306560  )
       204           O   tau( 204) = (   0.8790252   0.5041495   0.1312886  )
       205           O   tau( 205) = (   0.1296585   0.7543570   0.1300233  )
       206           O   tau( 206) = (   0.3796577   0.7542873   0.1306560  )
       207           O   tau( 207) = (   0.6296569   0.7542176   0.1312886  )
       208           O   tau( 208) = (   0.8796561   0.7541479   0.1319212  )
       209           O   tau( 209) = (   0.1276961   0.0042921   0.3781255  )
       210           O   tau( 210) = (   0.3776953   0.0042224   0.3787581  )
       211           O   tau( 211) = (   0.6276945   0.0041527   0.3793907  )
       212           O   tau( 212) = (   0.8776937   0.0040830   0.3800233  )
       213           O   tau( 213) = (   0.1283269   0.2542905   0.3787581  )
       214           O   tau( 214) = (   0.3783261   0.2542208   0.3793907  )
       215           O   tau( 215) = (   0.6283253   0.2541511   0.3800233  )
       216           O   tau( 216) = (   0.8783245   0.2540814   0.3806560  )
       217           O   tau( 217) = (   0.1289578   0.5042889   0.3793907  )
       218           O   tau( 218) = (   0.3789570   0.5042192   0.3800233  )
       219           O   tau( 219) = (   0.6289562   0.5041495   0.3806560  )
       220           O   tau( 220) = (   0.8789553   0.5040798   0.3812886  )
       221           O   tau( 221) = (   0.1295886   0.7542873   0.3800233  )
       222           O   tau( 222) = (   0.3795878   0.7542176   0.3806560  )
       223           O   tau( 223) = (   0.6295870   0.7541479   0.3812886  )
       224           O   tau( 224) = (   0.8795862   0.7540782   0.3819212  )
       225           O   tau( 225) = (   0.1276262   0.0042224   0.6281254  )
       226           O   tau( 226) = (   0.3776254   0.0041527   0.6287581  )
       227           O   tau( 227) = (   0.6276246   0.0040830   0.6293907  )
       228           O   tau( 228) = (   0.8776238   0.0040134   0.6300233  )
       229           O   tau( 229) = (   0.1282571   0.2542208   0.6287581  )
       230           O   tau( 230) = (   0.3782562   0.2541511   0.6293907  )
       231           O   tau( 231) = (   0.6282554   0.2540814   0.6300233  )
       232           O   tau( 232) = (   0.8782546   0.2540118   0.6306559  )
       233           O   tau( 233) = (   0.1288879   0.5042192   0.6293907  )
       234           O   tau( 234) = (   0.3788871   0.5041495   0.6300233  )
       235           O   tau( 235) = (   0.6288863   0.5040798   0.6306559  )
       236           O   tau( 236) = (   0.8788855   0.5040102   0.6312886  )
       237           O   tau( 237) = (   0.1295188   0.7542176   0.6300233  )
       238           O   tau( 238) = (   0.3795179   0.7541479   0.6306559  )
       239           O   tau( 239) = (   0.6295171   0.7540782   0.6312886  )
       240           O   tau( 240) = (   0.8795163   0.7540086   0.6319212  )
       241           O   tau( 241) = (   0.1275563   0.0041527   0.8781254  )
       242           O   tau( 242) = (   0.3775555   0.0040830   0.8787581  )
       243           O   tau( 243) = (   0.6275547   0.0040134   0.8793907  )
       244           O   tau( 244) = (   0.8775539   0.0039437   0.8800233  )
       245           O   tau( 245) = (   0.1281872   0.2541511   0.8787581  )
       246           O   tau( 246) = (   0.3781864   0.2540814   0.8793907  )
       247           O   tau( 247) = (   0.6281856   0.2540118   0.8800233  )
       248           O   tau( 248) = (   0.8781848   0.2539421   0.8806559  )
       249           O   tau( 249) = (   0.1288180   0.5041495   0.8793907  )
       250           O   tau( 250) = (   0.3788172   0.5040798   0.8800233  )
       251           O   tau( 251) = (   0.6288164   0.5040102   0.8806559  )
       252           O   tau( 252) = (   0.8788156   0.5039405   0.8812885  )
       253           O   tau( 253) = (   0.1294489   0.7541479   0.8800233  )
       254           O   tau( 254) = (   0.3794481   0.7540782   0.8806559  )
       255           O   tau( 255) = (   0.6294473   0.7540086   0.8812885  )
       256           O   tau( 256) = (   0.8794465   0.7539389   0.8819212  )
       257           O   tau( 257) = (   0.1281117   0.1277533   0.0050797  )
       258           O   tau( 258) = (   0.3781109   0.1276836   0.0057124  )
       259           O   tau( 259) = (   0.6281101   0.1276139   0.0063450  )
       260           O   tau( 260) = (   0.8781093   0.1275442   0.0069776  )
       261           O   tau( 261) = (   0.1287426   0.3777517   0.0057124  )
       262           O   tau( 262) = (   0.3787418   0.3776820   0.0063450  )
       263           O   tau( 263) = (   0.6287410   0.3776123   0.0069776  )
       264           O   tau( 264) = (   0.8787402   0.3775426   0.0076102  )
       265           O   tau( 265) = (   0.1293734   0.6277501   0.0063450  )
       266           O   tau( 266) = (   0.3793726   0.6276804   0.0069776  )
       267           O   tau( 267) = (   0.6293718   0.6276107   0.0076102  )
       268           O   tau( 268) = (   0.8793710   0.6275410   0.0082429  )
       269           O   tau( 269) = (   0.1300043   0.8777485   0.0069776  )
       270           O   tau( 270) = (   0.3800035   0.8776788   0.0076102  )
       271           O   tau( 271) = (   0.6300027   0.8776091   0.0082429  )
       272           O   tau( 272) = (   0.8800018   0.8775394   0.0088755  )
       273           O   tau( 273) = (   0.1280419   0.1276836   0.2550797  )
       274           O   tau( 274) = (   0.3780411   0.1276139   0.2557124  )
       275           O   tau( 275) = (   0.6280402   0.1275442   0.2563450  )
       276           O   tau( 276) = (   0.8780394   0.1274746   0.2569776  )
       277           O   tau( 277) = (   0.1286727   0.3776820   0.2557124  )
       278           O   tau( 278) = (   0.3786719   0.3776123   0.2563450  )
       279           O   tau( 279) = (   0.6286711   0.3775426   0.2569776  )
       280           O   tau( 280) = (   0.8786703   0.3774730   0.2576102  )
       281           O   tau( 281) = (   0.1293036   0.6276804   0.2563450  )
       282           O   tau( 282) = (   0.3793028   0.6276107   0.2569776  )
       283           O   tau( 283) = (   0.6293019   0.6275410   0.2576102  )
       284           O   tau( 284) = (   0.8793011   0.6274714   0.2582428  )
       285           O   tau( 285) = (   0.1299344   0.8776788   0.2569776  )
       286           O   tau( 286) = (   0.3799336   0.8776091   0.2576102  )
       287           O   tau( 287) = (   0.6299328   0.8775394   0.2582428  )
       288           O   tau( 288) = (   0.8799320   0.8774698   0.2588755  )
       289           O   tau( 289) = (   0.1279720   0.1276139   0.5050797  )
       290           O   tau( 290) = (   0.3779712   0.1275442   0.5057123  )
       291           O   tau( 291) = (   0.6279704   0.1274746   0.5063450  )
       292           O   tau( 292) = (   0.8779696   0.1274049   0.5069776  )
       293           O   tau( 293) = (   0.1286028   0.3776123   0.5057123  )
       294           O   tau( 294) = (   0.3786020   0.3775426   0.5063450  )
       295           O   tau( 295) = (   0.6286012   0.3774730   0.5069776  )
       296           O   tau( 296) = (   0.8786004   0.3774033   0.5076102  )
       297           O   tau( 297) = (   0.1292337   0.6276107   0.5063450  )
       298           O   tau( 298) = (   0.3792329   0.6275410   0.5069776  )
       299           O   tau( 299) = (   0.6292321   0.6274714   0.5076102  )
       300           O   tau( 300) = (   0.8792313   0.6274017   0.5082428  )
       301           O   tau( 301) = (   0.1298645   0.8776091   0.5069776  )
       302           O   tau( 302) = (   0.3798637   0.8775394   0.5076102  )
       303           O   tau( 303) = (   0.6298629   0.8774698   0.5082428  )
       304           O   tau( 304) = (   0.8798621   0.8774001   0.5088754  )
       305           O   tau( 305) = (   0.1279021   0.1275442   0.7550797  )
       306           O   tau( 306) = (   0.3779013   0.1274746   0.7557123  )
       307           O   tau( 307) = (   0.6279005   0.1274049   0.7563449  )
       308           O   tau( 308) = (   0.8778997   0.1273352   0.7569776  )
       309           O   tau( 309) = (   0.1285330   0.3775426   0.7557123  )
       310           O   tau( 310) = (   0.3785322   0.3774730   0.7563449  )
       311           O   tau( 311) = (   0.6285313   0.3774033   0.7569776  )
       312           O   tau( 312) = (   0.8785305   0.3773336   0.7576102  )
       313           O   tau( 313) = (   0.1291638   0.6275410   0.7563449  )
       314           O   tau( 314) = (   0.3791630   0.6274714   0.7569776  )
       315           O   tau( 315) = (   0.6291622   0.6274017   0.7576102  )
       316           O   tau( 316) = (   0.8791614   0.6273320   0.7582428  )
       317           O   tau( 317) = (   0.1297947   0.8775394   0.7569776  )
       318           O   tau( 318) = (   0.3797939   0.8774698   0.7576102  )
       319           O   tau( 319) = (   0.6297930   0.8774001   0.7582428  )
       320           O   tau( 320) = (   0.8797922   0.8773304   0.7588754  )

   Crystallographic axes

     site n.     atom                  positions (cryst. coord.)
         1           Ba  tau(   1) = (  0.9992954  0.9999574  0.9999574  )
         2           Ba  tau(   2) = (  0.2499574  0.9999574  0.9999574  )
         3           Ba  tau(   3) = (  0.4999574  0.9999574  0.9999574  )
         4           Ba  tau(   4) = (  0.7499574  0.9999574  0.9999574  )
         5           Ba  tau(   5) = (  0.9999574  0.2499574  0.9999574  )
         6           Ba  tau(   6) = (  0.2499574  0.2499574  0.9999574  )
         7           Ba  tau(   7) = (  0.4999574  0.2499574  0.9999574  )
         8           Ba  tau(   8) = (  0.7499574  0.2499574  0.9999574  )
         9           Ba  tau(   9) = (  0.9999574  0.4999574  0.9999574  )
        10           Ba  tau(  10) = (  0.2499574  0.4999574  0.9999574  )
        11           Ba  tau(  11) = (  0.4999574  0.4999574  0.9999574  )
        12           Ba  tau(  12) = (  0.7499574  0.4999574  0.9999574  )
        13           Ba  tau(  13) = (  0.9999574  0.7499574  0.9999574  )
        14           Ba  tau(  14) = (  0.2499574  0.7499574  0.9999574  )
        15           Ba  tau(  15) = (  0.4999574  0.7499574  0.9999574  )
        16           Ba  tau(  16) = (  0.7499574  0.7499574  0.9999574  )
        17           Ba  tau(  17) = (  0.9999574  0.9999574  0.2499574  )
        18           Ba  tau(  18) = (  0.2499574  0.9999574  0.2499574  )
        19           Ba  tau(  19) = (  0.4999574  0.9999574  0.2499574  )
        20           Ba  tau(  20) = (  0.7499574  0.9999574  0.2499574  )
        21           Ba  tau(  21) = (  0.9999574  0.2499574  0.2499574  )
        22           Ba  tau(  22) = (  0.2499574  0.2499574  0.2499574  )
        23           Ba  tau(  23) = (  0.4999574  0.2499574  0.2499574  )
        24           Ba  tau(  24) = (  0.7499574  0.2499574  0.2499574  )
        25           Ba  tau(  25) = (  0.9999574  0.4999574  0.2499574  )
        26           Ba  tau(  26) = (  0.2499574  0.4999574  0.2499574  )
        27           Ba  tau(  27) = (  0.4999574  0.4999574  0.2499574  )
        28           Ba  tau(  28) = (  0.7499574  0.4999574  0.2499574  )
        29           Ba  tau(  29) = (  0.9999574  0.7499574  0.2499574  )
        30           Ba  tau(  30) = (  0.2499574  0.7499574  0.2499574  )
        31           Ba  tau(  31) = (  0.4999574  0.7499574  0.2499574  )
        32           Ba  tau(  32) = (  0.7499574  0.7499574  0.2499574  )
        33           Ba  tau(  33) = (  0.9999574  0.9999574  0.4999574  )
        34           Ba  tau(  34) = (  0.2499574  0.9999574  0.4999574  )
        35           Ba  tau(  35) = (  0.4999574  0.9999574  0.4999574  )
        36           Ba  tau(  36) = (  0.7499574  0.9999574  0.4999574  )
        37           Ba  tau(  37) = (  0.9999574  0.2499574  0.4999574  )
        38           Ba  tau(  38) = (  0.2499574  0.2499574  0.4999574  )
        39           Ba  tau(  39) = (  0.4999574  0.2499574  0.4999574  )
        40           Ba  tau(  40) = (  0.7499574  0.2499574  0.4999574  )
        41           Ba  tau(  41) = (  0.9999574  0.4999574  0.4999574  )
        42           Ba  tau(  42) = (  0.2499574  0.4999574  0.4999574  )
        43           Ba  tau(  43) = (  0.4999574  0.4999574  0.4999574  )
        44           Ba  tau(  44) = (  0.7499574  0.4999574  0.4999574  )
        45           Ba  tau(  45) = (  0.9999574  0.7499574  0.4999574  )
        46           Ba  tau(  46) = (  0.2499574  0.7499574  0.4999574  )
        47           Ba  tau(  47) = (  0.4999574  0.7499574  0.4999574  )
        48           Ba  tau(  48) = (  0.7499574  0.7499574  0.4999574  )
        49           Ba  tau(  49) = (  0.9999574  0.9999574  0.7499574  )
        50           Ba  tau(  50) = (  0.2499574  0.9999574  0.7499574  )
        51           Ba  tau(  51) = (  0.4999574  0.9999574  0.7499574  )
        52           Ba  tau(  52) = (  0.7499574  0.9999574  0.7499574  )
        53           Ba  tau(  53) = (  0.9999574  0.2499574  0.7499574  )
        54           Ba  tau(  54) = (  0.2499574  0.2499574  0.7499574  )
        55           Ba  tau(  55) = (  0.4999574  0.2499574  0.7499574  )
        56           Ba  tau(  56) = (  0.7499574  0.2499574  0.7499574  )
        57           Ba  tau(  57) = (  0.9999574  0.4999574  0.7499574  )
        58           Ba  tau(  58) = (  0.2499574  0.4999574  0.7499574  )
        59           Ba  tau(  59) = (  0.4999574  0.4999574  0.7499574  )
        60           Ba  tau(  60) = (  0.7499574  0.4999574  0.7499574  )
        61           Ba  tau(  61) = (  0.9999574  0.7499574  0.7499574  )
        62           Ba  tau(  62) = (  0.2499574  0.7499574  0.7499574  )
        63           Ba  tau(  63) = (  0.4999574  0.7499574  0.7499574  )
        64           Ba  tau(  64) = (  0.7499574  0.7499574  0.7499574  )
        65           Ti  tau(  65) = (  0.1221028  0.1221028  0.1221028  )
        66           Ti  tau(  66) = (  0.3721028  0.1221028  0.1221028  )
        67           Ti  tau(  67) = (  0.6221028  0.1221028  0.1221028  )
        68           Ti  tau(  68) = (  0.8721028  0.1221028  0.1221028  )
        69           Ti  tau(  69) = (  0.1221028  0.3721028  0.1221028  )
        70           Ti  tau(  70) = (  0.3721028  0.3721028  0.1221028  )
        71           Ti  tau(  71) = (  0.6221028  0.3721028  0.1221028  )
        72           Ti  tau(  72) = (  0.8721028  0.3721028  0.1221028  )
        73           Ti  tau(  73) = (  0.1221028  0.6221028  0.1221028  )
        74           Ti  tau(  74) = (  0.3721028  0.6221028  0.1221028  )
        75           Ti  tau(  75) = (  0.6221028  0.6221028  0.1221028  )
        76           Ti  tau(  76) = (  0.8721028  0.6221028  0.1221028  )
        77           Ti  tau(  77) = (  0.1221028  0.8721028  0.1221028  )
        78           Ti  tau(  78) = (  0.3721028  0.8721028  0.1221028  )
        79           Ti  tau(  79) = (  0.6221028  0.8721028  0.1221028  )
        80           Ti  tau(  80) = (  0.8721028  0.8721028  0.1221028  )
        81           Ti  tau(  81) = (  0.1221028  0.1221028  0.3721028  )
        82           Ti  tau(  82) = (  0.3721028  0.1221028  0.3721028  )
        83           Ti  tau(  83) = (  0.6221028  0.1221028  0.3721028  )
        84           Ti  tau(  84) = (  0.8721028  0.1221028  0.3721028  )
        85           Ti  tau(  85) = (  0.1221028  0.3721028  0.3721028  )
        86           Ti  tau(  86) = (  0.3721028  0.3721028  0.3721028  )
        87           Ti  tau(  87) = (  0.6221028  0.3721028  0.3721028  )
        88           Ti  tau(  88) = (  0.8721028  0.3721028  0.3721028  )
        89           Ti  tau(  89) = (  0.1221028  0.6221028  0.3721028  )
        90           Ti  tau(  90) = (  0.3721028  0.6221028  0.3721028  )
        91           Ti  tau(  91) = (  0.6221028  0.6221028  0.3721028  )
        92           Ti  tau(  92) = (  0.8721028  0.6221028  0.3721028  )
        93           Ti  tau(  93) = (  0.1221028  0.8721028  0.3721028  )
        94           Ti  tau(  94) = (  0.3721028  0.8721028  0.3721028  )
        95           Ti  tau(  95) = (  0.6221028  0.8721028  0.3721028  )
        96           Ti  tau(  96) = (  0.8721028  0.8721028  0.3721028  )
        97           Ti  tau(  97) = (  0.1221028  0.1221028  0.6221028  )
        98           Ti  tau(  98) = (  0.3721028  0.1221028  0.6221028  )
        99           Ti  tau(  99) = (  0.6221028  0.1221028  0.6221028  )
       100           Ti  tau( 100) = (  0.8721028  0.1221028  0.6221028  )
       101           Ti  tau( 101) = (  0.1221028  0.3721028  0.6221028  )
       102           Ti  tau( 102) = (  0.3721028  0.3721028  0.6221028  )
       103           Ti  tau( 103) = (  0.6221028  0.3721028  0.6221028  )
       104           Ti  tau( 104) = (  0.8721028  0.3721028  0.6221028  )
       105           Ti  tau( 105) = (  0.1221028  0.6221028  0.6221028  )
       106           Ti  tau( 106) = (  0.3721028  0.6221028  0.6221028  )
       107           Ti  tau( 107) = (  0.6221028  0.6221028  0.6221028  )
       108           Ti  tau( 108) = (  0.8721028  0.6221028  0.6221028  )
       109           Ti  tau( 109) = (  0.1221028  0.8721028  0.6221028  )
       110           Ti  tau( 110) = (  0.3721028  0.8721028  0.6221028  )
       111           Ti  tau( 111) = (  0.6221028  0.8721028  0.6221028  )
       112           Ti  tau( 112) = (  0.8721028  0.8721028  0.6221028  )
       113           Ti  tau( 113) = (  0.1221028  0.1221028  0.8721028  )
       114           Ti  tau( 114) = (  0.3721028  0.1221028  0.8721028  )
       115           Ti  tau( 115) = (  0.6221028  0.1221028  0.8721028  )
       116           Ti  tau( 116) = (  0.8721028  0.1221028  0.8721028  )
       117           Ti  tau( 117) = (  0.1221028  0.3721028  0.8721028  )
       118           Ti  tau( 118) = (  0.3721028  0.3721028  0.8721028  )
       119           Ti  tau( 119) = (  0.6221028  0.3721028  0.8721028  )
       120           Ti  tau( 120) = (  0.8721028  0.3721028  0.8721028  )
       121           Ti  tau( 121) = (  0.1221028  0.6221028  0.8721028  )
       122           Ti  tau( 122) = (  0.3721028  0.6221028  0.8721028  )
       123           Ti  tau( 123) = (  0.6221028  0.6221028  0.8721028  )
       124           Ti  tau( 124) = (  0.8721028  0.6221028  0.8721028  )
       125           Ti  tau( 125) = (  0.1221028  0.8721028  0.8721028  )
       126           Ti  tau( 126) = (  0.3721028  0.8721028  0.8721028  )
       127           Ti  tau( 127) = (  0.6221028  0.8721028  0.8721028  )
       128           Ti  tau( 128) = (  0.8721028  0.8721028  0.8721028  )
       129           O   tau( 129) = (  0.0044330  0.1277909  0.1277909  )
       130           O   tau( 130) = (  0.2544330  0.1277909  0.1277909  )
       131           O   tau( 131) = (  0.5044330  0.1277909  0.1277909  )
       132           O   tau( 132) = (  0.7544330  0.1277909  0.1277909  )
       133           O   tau( 133) = (  0.0044330  0.3777909  0.1277909  )
       134           O   tau( 134) = (  0.2544330  0.3777909  0.1277909  )
       135           O   tau( 135) = (  0.5044330  0.3777909  0.1277909  )
       136           O   tau( 136) = (  0.7544330  0.3777909  0.1277909  )
       137           O   tau( 137) = (  0.0044330  0.6277909  0.1277909  )
       138           O   tau( 138) = (  0.2544330  0.6277909  0.1277909  )
       139           O   tau( 139) = (  0.5044330  0.6277909  0.1277909  )
       140           O   tau( 140) = (  0.7544330  0.6277909  0.1277909  )
       141           O   tau( 141) = (  0.0044330  0.8777909  0.1277909  )
       142           O   tau( 142) = (  0.2544330  0.8777909  0.1277909  )
       143           O   tau( 143) = (  0.5044330  0.8777909  0.1277909  )
       144           O   tau( 144) = (  0.7544330  0.8777909  0.1277909  )
       145           O   tau( 145) = (  0.0044330  0.1277909  0.3777909  )
       146           O   tau( 146) = (  0.2544330  0.1277909  0.3777909  )
       147           O   tau( 147) = (  0.5044330  0.1277909  0.3777909  )
       148           O   tau( 148) = (  0.7544330  0.1277909  0.3777909  )
       149           O   tau( 149) = (  0.0044330  0.3777909  0.3777909  )
       150           O   tau( 150) = (  0.2544330  0.3777909  0.3777909  )
       151           O   tau( 151) = (  0.5044330  0.3777909  0.3777909  )
       152           O   tau( 152) = (  0.7544330  0.3777909  0.3777909  )
       153           O   tau( 153) = (  0.0044330  0.6277909  0.3777909  )
       154           O   tau( 154) = (  0.2544330  0.6277909  0.3777909  )
       155           O   tau( 155) = (  0.5044330  0.6277909  0.3777909  )
       156           O   tau( 156) = (  0.7544330  0.6277909  0.3777909  )
       157           O   tau( 157) = (  0.0044330  0.8777909  0.3777909  )
       158           O   tau( 158) = (  0.2544330  0.8777909  0.3777909  )
       159           O   tau( 159) = (  0.5044330  0.8777909  0.3777909  )
       160           O   tau( 160) = (  0.7544330  0.8777909  0.3777909  )
       161           O   tau( 161) = (  0.0044330  0.1277909  0.6277909  )
       162           O   tau( 162) = (  0.2544330  0.1277909  0.6277909  )
       163           O   tau( 163) = (  0.5044330  0.1277909  0.6277909  )
       164           O   tau( 164) = (  0.7544330  0.1277909  0.6277909  )
       165           O   tau( 165) = (  0.0044330  0.3777909  0.6277909  )
       166           O   tau( 166) = (  0.2544330  0.3777909  0.6277909  )
       167           O   tau( 167) = (  0.5044330  0.3777909  0.6277909  )
       168           O   tau( 168) = (  0.7544330  0.3777909  0.6277909  )
       169           O   tau( 169) = (  0.0044330  0.6277909  0.6277909  )
       170           O   tau( 170) = (  0.2544330  0.6277909  0.6277909  )
       171           O   tau( 171) = (  0.5044330  0.6277909  0.6277909  )
       172           O   tau( 172) = (  0.7544330  0.6277909  0.6277909  )
       173           O   tau( 173) = (  0.0044330  0.8777909  0.6277909  )
       174           O   tau( 174) = (  0.2544330  0.8777909  0.6277909  )
       175           O   tau( 175) = (  0.5044330  0.8777909  0.6277909  )
       176           O   tau( 176) = (  0.7544330  0.8777909  0.6277909  )
       177           O   tau( 177) = (  0.0044330  0.1277909  0.8777909  )
       178           O   tau( 178) = (  0.2544330  0.1277909  0.8777909  )
       179           O   tau( 179) = (  0.5044330  0.1277909  0.8777909  )
       180           O   tau( 180) = (  0.7544330  0.1277909  0.8777909  )
       181           O   tau( 181) = (  0.0044330  0.3777909  0.8777909  )
       182           O   tau( 182) = (  0.2544330  0.3777909  0.8777909  )
       183           O   tau( 183) = (  0.5044330  0.3777909  0.8777909  )
       184           O   tau( 184) = (  0.7544330  0.3777909  0.8777909  )
       185           O   tau( 185) = (  0.0044330  0.6277909  0.8777909  )
       186           O   tau( 186) = (  0.2544330  0.6277909  0.8777909  )
       187           O   tau( 187) = (  0.5044330  0.6277909  0.8777909  )
       188           O   tau( 188) = (  0.7544330  0.6277909  0.8777909  )
       189           O   tau( 189) = (  0.0044330  0.8777909  0.8777909  )
       190           O   tau( 190) = (  0.2544330  0.8777909  0.8777909  )
       191           O   tau( 191) = (  0.5044330  0.8777909  0.8777909  )
       192           O   tau( 192) = (  0.7544330  0.8777909  0.8777909  )
       193           O   tau( 193) = (  0.1277909  0.0044330  0.1277909  )
       194           O   tau( 194) = (  0.3777909  0.0044330  0.1277909  )
       195           O   tau( 195) = (  0.6277909  0.0044330  0.1277909  )
       196           O   tau( 196) = (  0.8777909  0.0044330  0.1277909  )
       197           O   tau( 197) = (  0.1277909  0.2544330  0.1277909  )
       198           O   tau( 198) = (  0.3777909  0.2544330  0.1277909  )
       199           O   tau( 199) = (  0.6277909  0.2544330  0.1277909  )
       200           O   tau( 200) = (  0.8777909  0.2544330  0.1277909  )
       201           O   tau( 201) = (  0.1277909  0.5044330  0.1277909  )
       202           O   tau( 202) = (  0.3777909  0.5044330  0.1277909  )
       203           O   tau( 203) = (  0.6277909  0.5044330  0.1277909  )
       204           O   tau( 204) = (  0.8777909  0.5044330  0.1277909  )
       205           O   tau( 205) = (  0.1277909  0.7544330  0.1277909  )
       206           O   tau( 206) = (  0.3777909  0.7544330  0.1277909  )
       207           O   tau( 207) = (  0.6277909  0.7544330  0.1277909  )
       208           O   tau( 208) = (  0.8777909  0.7544330  0.1277909  )
       209           O   tau( 209) = (  0.1277909  0.0044330  0.3777909  )
       210           O   tau( 210) = (  0.3777909  0.0044330  0.3777909  )
       211           O   tau( 211) = (  0.6277909  0.0044330  0.3777909  )
       212           O   tau( 212) = (  0.8777909  0.0044330  0.3777909  )
       213           O   tau( 213) = (  0.1277909  0.2544330  0.3777909  )
       214           O   tau( 214) = (  0.3777909  0.2544330  0.3777909  )
       215           O   tau( 215) = (  0.6277909  0.2544330  0.3777909  )
       216           O   tau( 216) = (  0.8777909  0.2544330  0.3777909  )
       217           O   tau( 217) = (  0.1277909  0.5044330  0.3777909  )
       218           O   tau( 218) = (  0.3777909  0.5044330  0.3777909  )
       219           O   tau( 219) = (  0.6277909  0.5044330  0.3777909  )
       220           O   tau( 220) = (  0.8777909  0.5044330  0.3777909  )
       221           O   tau( 221) = (  0.1277909  0.7544330  0.3777909  )
       222           O   tau( 222) = (  0.3777909  0.7544330  0.3777909  )
       223           O   tau( 223) = (  0.6277909  0.7544330  0.3777909  )
       224           O   tau( 224) = (  0.8777909  0.7544330  0.3777909  )
       225           O   tau( 225) = (  0.1277909  0.0044330  0.6277909  )
       226           O   tau( 226) = (  0.3777909  0.0044330  0.6277909  )
       227           O   tau( 227) = (  0.6277909  0.0044330  0.6277909  )
       228           O   tau( 228) = (  0.8777909  0.0044330  0.6277909  )
       229           O   tau( 229) = (  0.1277909  0.2544330  0.6277909  )
       230           O   tau( 230) = (  0.3777909  0.2544330  0.6277909  )
       231           O   tau( 231) = (  0.6277909  0.2544330  0.6277909  )
       232           O   tau( 232) = (  0.8777909  0.2544330  0.6277909  )
       233           O   tau( 233) = (  0.1277909  0.5044330  0.6277909  )
       234           O   tau( 234) = (  0.3777909  0.5044330  0.6277909  )
       235           O   tau( 235) = (  0.6277909  0.5044330  0.6277909  )
       236           O   tau( 236) = (  0.8777909  0.5044330  0.6277909  )
       237           O   tau( 237) = (  0.1277909  0.7544330  0.6277909  )
       238           O   tau( 238) = (  0.3777909  0.7544330  0.6277909  )
       239           O   tau( 239) = (  0.6277909  0.7544330  0.6277909  )
       240           O   tau( 240) = (  0.8777909  0.7544330  0.6277909  )
       241           O   tau( 241) = (  0.1277909  0.0044330  0.8777909  )
       242           O   tau( 242) = (  0.3777909  0.0044330  0.8777909  )
       243           O   tau( 243) = (  0.6277909  0.0044330  0.8777909  )
       244           O   tau( 244) = (  0.8777909  0.0044330  0.8777909  )
       245           O   tau( 245) = (  0.1277909  0.2544330  0.8777909  )
       246           O   tau( 246) = (  0.3777909  0.2544330  0.8777909  )
       247           O   tau( 247) = (  0.6277909  0.2544330  0.8777909  )
       248           O   tau( 248) = (  0.8777909  0.2544330  0.8777909  )
       249           O   tau( 249) = (  0.1277909  0.5044330  0.8777909  )
       250           O   tau( 250) = (  0.3777909  0.5044330  0.8777909  )
       251           O   tau( 251) = (  0.6277909  0.5044330  0.8777909  )
       252           O   tau( 252) = (  0.8777909  0.5044330  0.8777909  )
       253           O   tau( 253) = (  0.1277909  0.7544330  0.8777909  )
       254           O   tau( 254) = (  0.3777909  0.7544330  0.8777909  )
       255           O   tau( 255) = (  0.6277909  0.7544330  0.8777909  )
       256           O   tau( 256) = (  0.8777909  0.7544330  0.8777909  )
       257           O   tau( 257) = (  0.1277909  0.1277909  0.0044330  )
       258           O   tau( 258) = (  0.3777909  0.1277909  0.0044330  )
       259           O   tau( 259) = (  0.6277909  0.1277909  0.0044330  )
       260           O   tau( 260) = (  0.8777909  0.1277909  0.0044330  )
       261           O   tau( 261) = (  0.1277909  0.3777909  0.0044330  )
       262           O   tau( 262) = (  0.3777909  0.3777909  0.0044330  )
       263           O   tau( 263) = (  0.6277909  0.3777909  0.0044330  )
       264           O   tau( 264) = (  0.8777909  0.3777909  0.0044330  )
       265           O   tau( 265) = (  0.1277909  0.6277909  0.0044330  )
       266           O   tau( 266) = (  0.3777909  0.6277909  0.0044330  )
       267           O   tau( 267) = (  0.6277909  0.6277909  0.0044330  )
       268           O   tau( 268) = (  0.8777909  0.6277909  0.0044330  )
       269           O   tau( 269) = (  0.1277909  0.8777909  0.0044330  )
       270           O   tau( 270) = (  0.3777909  0.8777909  0.0044330  )
       271           O   tau( 271) = (  0.6277909  0.8777909  0.0044330  )
       272           O   tau( 272) = (  0.8777909  0.8777909  0.0044330  )
       273           O   tau( 273) = (  0.1277909  0.1277909  0.2544330  )
       274           O   tau( 274) = (  0.3777909  0.1277909  0.2544330  )
       275           O   tau( 275) = (  0.6277909  0.1277909  0.2544330  )
       276           O   tau( 276) = (  0.8777909  0.1277909  0.2544330  )
       277           O   tau( 277) = (  0.1277909  0.3777909  0.2544330  )
       278           O   tau( 278) = (  0.3777909  0.3777909  0.2544330  )
       279           O   tau( 279) = (  0.6277909  0.3777909  0.2544330  )
       280           O   tau( 280) = (  0.8777909  0.3777909  0.2544330  )
       281           O   tau( 281) = (  0.1277909  0.6277909  0.2544330  )
       282           O   tau( 282) = (  0.3777909  0.6277909  0.2544330  )
       283           O   tau( 283) = (  0.6277909  0.6277909  0.2544330  )
       284           O   tau( 284) = (  0.8777909  0.6277909  0.2544330  )
       285           O   tau( 285) = (  0.1277909  0.8777909  0.2544330  )
       286           O   tau( 286) = (  0.3777909  0.8777909  0.2544330  )
       287           O   tau( 287) = (  0.6277909  0.8777909  0.2544330  )
       288           O   tau( 288) = (  0.8777909  0.8777909  0.2544330  )
       289           O   tau( 289) = (  0.1277909  0.1277909  0.5044330  )
       290           O   tau( 290) = (  0.3777909  0.1277909  0.5044330  )
       291           O   tau( 291) = (  0.6277909  0.1277909  0.5044330  )
       292           O   tau( 292) = (  0.8777909  0.1277909  0.5044330  )
       293           O   tau( 293) = (  0.1277909  0.3777909  0.5044330  )
       294           O   tau( 294) = (  0.3777909  0.3777909  0.5044330  )
       295           O   tau( 295) = (  0.6277909  0.3777909  0.5044330  )
       296           O   tau( 296) = (  0.8777909  0.3777909  0.5044330  )
       297           O   tau( 297) = (  0.1277909  0.6277909  0.5044330  )
       298           O   tau( 298) = (  0.3777909  0.6277909  0.5044330  )
       299           O   tau( 299) = (  0.6277909  0.6277909  0.5044330  )
       300           O   tau( 300) = (  0.8777909  0.6277909  0.5044330  )
       301           O   tau( 301) = (  0.1277909  0.8777909  0.5044330  )
       302           O   tau( 302) = (  0.3777909  0.8777909  0.5044330  )
       303           O   tau( 303) = (  0.6277909  0.8777909  0.5044330  )
       304           O   tau( 304) = (  0.8777909  0.8777909  0.5044330  )
       305           O   tau( 305) = (  0.1277909  0.1277909  0.7544330  )
       306           O   tau( 306) = (  0.3777909  0.1277909  0.7544330  )
       307           O   tau( 307) = (  0.6277909  0.1277909  0.7544330  )
       308           O   tau( 308) = (  0.8777909  0.1277909  0.7544330  )
       309           O   tau( 309) = (  0.1277909  0.3777909  0.7544330  )
       310           O   tau( 310) = (  0.3777909  0.3777909  0.7544330  )
       311           O   tau( 311) = (  0.6277909  0.3777909  0.7544330  )
       312           O   tau( 312) = (  0.8777909  0.3777909  0.7544330  )
       313           O   tau( 313) = (  0.1277909  0.6277909  0.7544330  )
       314           O   tau( 314) = (  0.3777909  0.6277909  0.7544330  )
       315           O   tau( 315) = (  0.6277909  0.6277909  0.7544330  )
       316           O   tau( 316) = (  0.8777909  0.6277909  0.7544330  )
       317           O   tau( 317) = (  0.1277909  0.8777909  0.7544330  )
       318           O   tau( 318) = (  0.3777909  0.8777909  0.7544330  )
       319           O   tau( 319) = (  0.6277909  0.8777909  0.7544330  )
       320           O   tau( 320) = (  0.8777909  0.8777909  0.7544330  )

     number of k points=     8
                       cart. coord. in units 2pi/alat
        k(    1) = (   0.0000000   0.0000000   0.0000000), wk =   0.2500000
        k(    2) = (   0.0012656   0.0012621  -0.4999993), wk =   0.2500000
        k(    3) = (  -0.0001390  -0.5000025  -0.0001394), wk =   0.2500000
        k(    4) = (   0.0011266  -0.4987404  -0.5001387), wk =   0.2500000
        k(    5) = (  -0.5000009   0.0012621  -0.0001394), wk =   0.2500000
        k(    6) = (  -0.4987353   0.0025241  -0.5001387), wk =   0.2500000
        k(    7) = (  -0.5001399  -0.4987404  -0.0002788), wk =   0.2500000
        k(    8) = (  -0.4988743  -0.4974784  -0.5002781), wk =   0.2500000

                       cryst. coord.
        k(    1) = (   0.0000000   0.0000000   0.0000000), wk =   0.2500000
        k(    2) = (  -0.0000000   0.0000000  -0.5000000), wk =   0.2500000
        k(    3) = (  -0.0000000  -0.5000000   0.0000000), wk =   0.2500000
        k(    4) = (   0.0000000  -0.5000000  -0.5000000), wk =   0.2500000
        k(    5) = (  -0.5000000  -0.0000000   0.0000000), wk =   0.2500000
        k(    6) = (  -0.5000000   0.0000000  -0.5000000), wk =   0.2500000
        k(    7) = (  -0.5000000  -0.5000000   0.0000000), wk =   0.2500000
        k(    8) = (  -0.5000000  -0.5000000  -0.5000000), wk =   0.2500000

     Dense  grid:  6843983 G-vectors     FFT dimensions: ( 240, 240, 240)

     Smooth grid:  1731393 G-vectors     FFT dimensions: ( 150, 150, 150)

     Dynamical RAM for                 wfc:     528.36 MB

     Dynamical RAM for     wfc (w. buffer):    1585.08 MB

     Dynamical RAM for           str. fact:      39.16 MB

     Dynamical RAM for           local pot:       0.00 MB

     Dynamical RAM for          nlocal pot:    1585.08 MB

     Dynamical RAM for                qrad:       5.90 MB

     Dynamical RAM for          rho,v,vnew:      78.71 MB

     Dynamical RAM for               rhoin:      26.24 MB

     Dynamical RAM for            rho*nmix:     208.86 MB

     Dynamical RAM for           G-vectors:      50.60 MB

     Dynamical RAM for          h,s,v(r/c):     300.00 MB

     Dynamical RAM for          <psi|beta>:      75.00 MB

     Dynamical RAM for                 psi:    2113.44 MB

     Dynamical RAM for                hpsi:    2113.44 MB

     Dynamical RAM for                spsi:    2113.44 MB

     Dynamical RAM for      wfcinit/wfcrot:    1669.47 MB

     Dynamical RAM for           addusdens:    1243.38 MB

     Dynamical RAM for          addusforce:    3741.19 MB

     Estimated static dynamical RAM per process >       3.61 GB

     Estimated max dynamical RAM per process >      10.17 GB

     Estimated total dynamical RAM >     325.41 GB

SIRIUS version : 6.5.7
git hash       : https://api.github.com/repos/electronic-structure/SIRIUS/git/ref/tags/v6.5.7
git branch     : release v6.5.7
build time     : 2021-04-07 16:28:09
start time     : Wed,  3 Nov 2021 00:56:23

number of MPI ranks           : 32
MPI grid                      : 4 8 1
maximum number of OMP threads : 12
number of MPI ranks per node  : 1
page size (Kb)                : 4
number of pages               : 16460583
available memory (GB)         : 62

FFT context for density and potential
=====================================
  comm size                             : 32
  plane wave cutoff                     : 24.494897
  grid size                             : 240 240 240   total : 13824000
  grid limits                           : -119 120   -119 120   -119 120
  number of G-vectors within the cutoff : 3421992
  local number of G-vectors             : 106845
  number of G-shells                    : 577956

FFT context for coarse grid
=====================================
  comm size                             : 1
  plane wave cutoff                     : 15.491933
  grid size                             : 160 160 160   total : 4096000
  grid limits                           : -79 80   -79 80   -79 80
  number of G-vectors within the cutoff : 865697
  local number of G-vectors             : 27052
  number of G-shells                    : 147351

number of local G-vector blocks: 1

Unit cell
--------------------------------------------------------------------------------
lattice vectors
  a1 :      30.2116418389      -0.0084201835       0.0764504409 
  a2 :       0.0762359683      30.2115469837       0.0764505066 
  a3 :      -0.0084438618      -0.0084201676      30.2117377100 
reciprocal lattice vectors
  b1 :       0.2079720291      -0.0005249444       0.0000579797 
  b2 :       0.0000578166       0.2079726824       0.0000579792 
  b3 :      -0.0005264170      -0.0005249445       0.2079713687 

unit cell volume :     27575.53297665 [a.u.^3]
1/sqrt(omega)    :         0.00602196
MT volume        : 0.000000 ( 0.00%)
IT volume        : 27575.532977 (100.00%)

number of atom types : 3
type id : 0   symbol :      mt_radius :  99.449334, num_atoms: 64
type id : 1   symbol :      mt_radius : 100.379454, num_atoms: 64
type id : 2   symbol :      mt_radius :  99.043432, num_atoms: 192
total number of atoms : 320
number of symmetry classes : 320
number of PAW atoms : 0

minimum bond length:       3.562553420420

number of pseudo wave-functions: 1920

space group number   : 0
international symbol : n/a
Hall symbol          : n/a
number of operations : 1
transformation matrix : 
    1.000000     0.000000     0.000000 
    0.000000     1.000000     0.000000 
    0.000000     0.000000     1.000000 
origin shift : 
    0.000000     0.000000     0.000000

label          : Ba
--------------------------------------------------------------------------------
symbol         : 
name           : 
zn             : 10
mass           : 137.327000
mt_radius      : 99.449334
num_mt_points  : 1251
grid_origin    : 0.000016
grid_name      : external

number of core electrons    : 0.000000
number of valence electrons : 10.000000

total number of radial functions : 6
lmax of radial functions         : 2
max. number of radial functions  : 2
total number of basis functions  : 18
number of aw basis functions     : 0
number of lo basis functions     : 18
lmax of beta-projectors          : 2
number of ps wavefunctions       : 4
charge augmentation              : true
Hubbard correction               : false
spin-orbit coupling              : false

label          : Ti
--------------------------------------------------------------------------------
symbol         : 
name           : 
zn             : 12
mass           : 47.867000
mt_radius      : 100.379454
num_mt_points  : 1177
grid_origin    : 0.000041
grid_name      : external

number of core electrons    : 0.000000
number of valence electrons : 12.000000

total number of radial functions : 6
lmax of radial functions         : 2
max. number of radial functions  : 2
total number of basis functions  : 18
number of aw basis functions     : 0
number of lo basis functions     : 18
lmax of beta-projectors          : 2
number of ps wavefunctions       : 4
charge augmentation              : true
Hubbard correction               : false
spin-orbit coupling              : false

label          : O
--------------------------------------------------------------------------------
symbol         : 
name           : 
zn             : 6
mass           : 15.999400
mt_radius      : 99.043432
num_mt_points  : 1095
grid_origin    : 0.000114
grid_name      : external

number of core electrons    : 0.000000
number of valence electrons : 6.000000

total number of radial functions : 4
lmax of radial functions         : 1
max. number of radial functions  : 2
total number of basis functions  : 8
number of aw basis functions     : 0
number of lo basis functions     : 8
lmax of beta-projectors          : 1
number of ps wavefunctions       : 2
charge augmentation              : true
Hubbard correction               : false
spin-orbit coupling              : false

Basic information
--------------------------------------------------------------------------------
total nuclear charge               : 2560
number of core electrons           : 0.000000
number of valence electrons        : 2560.000000
total number of electrons          : 2560.000000
extra charge                       : 0.000000
total number of aw basis functions : 0
total number of lo basis functions : 3840
number of first-variational states : -1
number of bands                    : 1280
number of spins                    : 1
number of magnetic dimensions      : 0
lmax_apw                           : -1
lmax_rho                           : 4
lmax_pot                           : 4
lmax_rf                            : 2
smearing width                     : 0.010000
cyclic block size                  : 128
|G+k| cutoff                       : 7.745967
valence relativity                 : zora
core relativity                    : Dirac
standard eigen-value solver        : cuSOLVER
generalized eigen-value solver     : cuSOLVER
processing unit                    : GPU
number of devices                  : 1
  name                             : Tesla P100-PCIE-16GB
  major                            : 6
  minor                            : 0
  clockRate                        : 1328500 kHz
  memoryClockRate                  : 715000 kHz
  memoryBusWidth                   : 4096 bits
  sharedMemPerBlock                : 48 kB
  totalConstMem                    : 64 kB
  totalGlobalMem                   : 16671616 kB
  available memory                 : 15484672 kB
  l2CacheSize                      : 4096 kB
  warpSize                         : 32
  regsPerBlock                     : 65536
  canMapHostMemory                 : 1
  concurrentKernels                : 1
  maxGridSize                      : 2147483647 65535 65535
  maxThreadsDim                    : 1024 1024 64
  maxThreadsPerBlock               : 1024
  maxThreadsPerMultiProcessor      : 2048
  multiProcessorCount              : 56
  pciBusID                         : 2
  pciDeviceID                      : 0
  pciDomainID                      : 0
  regsPerMultiprocessor            : 65536
  asyncEngineCount                 : 2
  ECCEnabled                       : 1
  memPitch                         : 2147483647

iterative solver                   : davidson
number of steps                    : 20
subspace size                      : 4

spglib version: 1.16.0
HDF5 version: 1.12.0
Libxc version: 4.3.4

XC functionals
==============

memory consumption
==================
approximate number of G+k vectors        : 216421
approximate number of G vectors          : 3421919
approximate number of coarse G vectors   : 865684
approximate size of wave-functions for each k-point: 4226 Mb, 528 Mb/rank
approximate memory consumption of Davidson solver: 8982 Mb/rank
approximate memory consumption of charge density augmentation: 1150 Mb/rank
approximate memory consumption of FFT transforms: 69 Mb/rank

     Check: negative core charge=   -0.000010

     Initial potential from superposition of free atoms

total number of k-points : 8
--------------------------------------------------------------------------------
  ik                vk                    weight  num_gkvec
--------------------------------------------------------------------------------
   0     0.0000   0.0000   0.0000       0.125000     216547
   1    -0.0000   0.0000  -0.5000       0.125000     216404
   2     0.0000  -0.5000   0.0000       0.125000     216404
   3    -0.0000  -0.5000  -0.5000       0.125000     216446
   4    -0.5000  -0.0000   0.0000       0.125000     216404
   5    -0.5000   0.0000  -0.5000       0.125000     216446
   6    -0.5000  -0.5000   0.0000       0.125000     216446
   7    -0.5000  -0.5000  -0.5000       0.125000     216296

     total cpu time spent up to now is       60.8 secs

     Self-consistent Calculation

     iteration #  1     ecut=    60.00 Ry     beta= 0.30
[solve] iterative solver tolerance:     0.005000000000
[solve] average number of iterations:     2.375000

     total cpu time spent up to now is       79.8 secs

     total energy              =  -17379.94376167 Ry
     Harris-Foulkes estimate   =  -17438.43362120 Ry
     estimated scf accuracy    <     130.51437082 Ry
 
     Band energy sum           =    -763.62507064 Ry

     iteration #  2     ecut=    60.00 Ry     beta= 0.30
[solve] iterative solver tolerance:     0.002549108805
[solve] average number of iterations:     4.125000

     total cpu time spent up to now is      105.1 secs

     total energy              =  -17411.51833340 Ry
     Harris-Foulkes estimate   =  -17414.26375262 Ry
     estimated scf accuracy    <       8.54752214 Ry
 
     Band energy sum           =    -671.08168515 Ry

     iteration #  3     ecut=    60.00 Ry     beta= 0.30
[solve] iterative solver tolerance:     0.000166943792
[solve] average number of iterations:     4.875000

     total cpu time spent up to now is      130.2 secs

     total energy              =  -17413.19764459 Ry
     Harris-Foulkes estimate   =  -17413.63974692 Ry
     estimated scf accuracy    <       1.27543750 Ry
 
     Band energy sum           =    -678.65095166 Ry

     iteration #  4     ecut=    60.00 Ry     beta= 0.30
[solve] iterative solver tolerance:     0.000024910889
[solve] average number of iterations:     5.125000

     total cpu time spent up to now is      160.1 secs

     total energy              =  -17413.55949147 Ry
     Harris-Foulkes estimate   =  -17413.81330019 Ry
     estimated scf accuracy    <       1.51065941 Ry
 
     Band energy sum           =    -652.76434380 Ry

     iteration #  5     ecut=    60.00 Ry     beta= 0.30
[solve] iterative solver tolerance:     0.000024910889
[solve] average number of iterations:     1.125000

     total cpu time spent up to now is      173.7 secs

     total energy              =  -17413.16099775 Ry
     Harris-Foulkes estimate   =  -17413.57944542 Ry
     estimated scf accuracy    <       0.90703260 Ry
 
     Band energy sum           =    -654.78970557 Ry

     iteration #  6     ecut=    60.00 Ry     beta= 0.30
[solve] iterative solver tolerance:     0.000017715481
[solve] average number of iterations:     4.500000

     total cpu time spent up to now is      199.8 secs

     total energy              =  -17413.42856197 Ry
     Harris-Foulkes estimate   =  -17413.66691759 Ry
     estimated scf accuracy    <       0.73552840 Ry
 
     Band energy sum           =    -666.34469575 Ry

     iteration #  7     ecut=    60.00 Ry     beta= 0.30
[solve] iterative solver tolerance:     0.000014365789
[solve] average number of iterations:     4.500000

     total cpu time spent up to now is      217.9 secs

     total energy              =  -17413.48507721 Ry
     Harris-Foulkes estimate   =  -17413.49030182 Ry
     estimated scf accuracy    <       0.09512295 Ry
 
     Band energy sum           =    -660.99737031 Ry

     iteration #  8     ecut=    60.00 Ry     beta= 0.30
[solve] iterative solver tolerance:     0.000001857870
[solve] average number of iterations:     5.125000

     total cpu time spent up to now is      242.8 secs

     total energy              =  -17413.54532489 Ry
     Harris-Foulkes estimate   =  -17413.54522075 Ry
     estimated scf accuracy    <       0.00632272 Ry
 
     Band energy sum           =    -660.63851989 Ry

     iteration #  9     ecut=    60.00 Ry     beta= 0.30
[solve] iterative solver tolerance:     0.000000123491
[solve] average number of iterations:     4.375000

     total cpu time spent up to now is      261.8 secs

     total energy              =  -17413.54564311 Ry
     Harris-Foulkes estimate   =  -17413.54589527 Ry
     estimated scf accuracy    <       0.00689203 Ry
 
     Band energy sum           =    -659.96041310 Ry

     iteration # 10     ecut=    60.00 Ry     beta= 0.30
[solve] iterative solver tolerance:     0.000000123491
[solve] average number of iterations:     1.000000

     total cpu time spent up to now is      275.0 secs

     total energy              =  -17413.54482189 Ry
     Harris-Foulkes estimate   =  -17413.54570062 Ry
     estimated scf accuracy    <       0.00625386 Ry
 
     Band energy sum           =    -659.76737076 Ry

     iteration # 11     ecut=    60.00 Ry     beta= 0.30
[solve] iterative solver tolerance:     0.000000122146
[solve] average number of iterations:     1.000000

     total cpu time spent up to now is      288.2 secs

     total energy              =  -17413.54437595 Ry
     Harris-Foulkes estimate   =  -17413.54490313 Ry
     estimated scf accuracy    <       0.00393762 Ry
 
     Band energy sum           =    -659.93496484 Ry

     iteration # 12     ecut=    60.00 Ry     beta= 0.30
[solve] iterative solver tolerance:     0.000000076907
[solve] average number of iterations:     3.500000

     total cpu time spent up to now is      305.8 secs

     total energy              =  -17413.54452954 Ry
     Harris-Foulkes estimate   =  -17413.54462400 Ry
     estimated scf accuracy    <       0.00102455 Ry
 
     Band energy sum           =    -660.14983902 Ry

     iteration # 13     ecut=    60.00 Ry     beta= 0.30
[solve] iterative solver tolerance:     0.000000020011
[solve] average number of iterations:     4.875000

     total cpu time spent up to now is      326.0 secs

     total energy              =  -17413.54452317 Ry
     Harris-Foulkes estimate   =  -17413.54463412 Ry
     estimated scf accuracy    <       0.00034834 Ry
 
     Band energy sum           =    -660.21796949 Ry

     iteration # 14     ecut=    60.00 Ry     beta= 0.30
[solve] iterative solver tolerance:     0.000000006804
[solve] average number of iterations:     4.250000

     total cpu time spent up to now is      349.7 secs

     total energy              =  -17413.54460930 Ry
     Harris-Foulkes estimate   =  -17413.54461810 Ry
     estimated scf accuracy    <       0.00002225 Ry
 
     Band energy sum           =    -660.37342493 Ry

     iteration # 15     ecut=    60.00 Ry     beta= 0.30
[solve] iterative solver tolerance:     0.000000000435
[solve] average number of iterations:     5.500000

     total cpu time spent up to now is      377.4 secs

     total energy              =  -17413.54461566 Ry
     Harris-Foulkes estimate   =  -17413.54461562 Ry
     estimated scf accuracy    <       0.00000100 Ry
 
     Band energy sum           =    -660.32056096 Ry

     iteration # 16     ecut=    60.00 Ry     beta= 0.30
[solve] iterative solver tolerance:     0.000000000019
[solve] average number of iterations:     5.250000

     total cpu time spent up to now is      397.8 secs

     total energy              =  -17413.54461563 Ry
     Harris-Foulkes estimate   =  -17413.54461579 Ry
     estimated scf accuracy    <       0.00000109 Ry
 
     Band energy sum           =    -660.31153296 Ry

     iteration # 17     ecut=    60.00 Ry     beta= 0.30
[solve] iterative solver tolerance:     0.000000000019
[solve] average number of iterations:     1.000000

     total cpu time spent up to now is      411.0 secs

     total energy              =  -17413.54461555 Ry
     Harris-Foulkes estimate   =  -17413.54461565 Ry
     estimated scf accuracy    <       0.00000068 Ry
 
     Band energy sum           =    -660.30686001 Ry

     iteration # 18     ecut=    60.00 Ry     beta= 0.30
[solve] iterative solver tolerance:     0.000000000013
[solve] average number of iterations:     3.000000

     total cpu time spent up to now is      425.7 secs

     total energy              =  -17413.54461548 Ry
     Harris-Foulkes estimate   =  -17413.54461557 Ry
     estimated scf accuracy    <       0.00000035 Ry
 
     Band energy sum           =    -660.30819883 Ry

     iteration # 19     ecut=    60.00 Ry     beta= 0.30
[solve] iterative solver tolerance:     0.000000000007
[solve] average number of iterations:     4.000000

     total cpu time spent up to now is      447.6 secs

     total energy              =  -17413.54461556 Ry
     Harris-Foulkes estimate   =  -17413.54461556 Ry
     estimated scf accuracy    <       0.00000002 Ry
 
     Band energy sum           =    -660.31349251 Ry

     iteration # 20     ecut=    60.00 Ry     beta= 0.30
[solve] iterative solver tolerance:     0.000000000000
[solve] average number of iterations:     4.000000

     total cpu time spent up to now is      463.3 secs

     total energy              =  -17413.54461556 Ry
     Harris-Foulkes estimate   =  -17413.54461556 Ry
     estimated scf accuracy    <       0.00000001 Ry
 
     Band energy sum           =    -660.31419147 Ry

     iteration # 21     ecut=    60.00 Ry     beta= 0.30
[solve] iterative solver tolerance:     0.000000000000
[solve] average number of iterations:     4.000000

     total cpu time spent up to now is      482.4 secs

     total energy              =  -17413.54461556 Ry
     Harris-Foulkes estimate   =  -17413.54461556 Ry
     estimated scf accuracy    <          9.0E-09 Ry
 
     Band energy sum           =    -660.31503859 Ry

     iteration # 22     ecut=    60.00 Ry     beta= 0.30
[solve] iterative solver tolerance:     0.000000000000
[solve] average number of iterations:     3.500000

     total cpu time spent up to now is      497.5 secs

     total energy              =  -17413.54461556 Ry
     Harris-Foulkes estimate   =  -17413.54461556 Ry
     estimated scf accuracy    <          1.4E-09 Ry
 
     Band energy sum           =    -660.31503987 Ry

     iteration # 23     ecut=    60.00 Ry     beta= 0.30
[solve] iterative solver tolerance:     0.000000000000
[solve] average number of iterations:     3.000000

     total cpu time spent up to now is      506.2 secs

     total energy              =  -17413.54461556 Ry
     Harris-Foulkes estimate   =  -17413.54461556 Ry
     estimated scf accuracy    <          5.7E-10 Ry
 
     Band energy sum           =    -660.31524542 Ry

     iteration # 24     ecut=    60.00 Ry     beta= 0.30
[solve] iterative solver tolerance:     0.000000000000
[solve] average number of iterations:     3.375000

     total cpu time spent up to now is      519.2 secs

     total energy              =  -17413.54461556 Ry
     Harris-Foulkes estimate   =  -17413.54461556 Ry
     estimated scf accuracy    <          2.1E-09 Ry
 
     Band energy sum           =    -660.31528347 Ry

     iteration # 25     ecut=    60.00 Ry     beta= 0.30
[solve] iterative solver tolerance:     0.000000000000
[solve] average number of iterations:     0.000000

     total cpu time spent up to now is      526.6 secs

     total energy              =  -17413.54461556 Ry
     Harris-Foulkes estimate   =  -17413.54461556 Ry
     estimated scf accuracy    <          1.8E-09 Ry
 
     Band energy sum           =    -660.31529664 Ry

     iteration # 26     ecut=    60.00 Ry     beta= 0.30
[solve] iterative solver tolerance:     0.000000000000
[solve] average number of iterations:     1.625000

     total cpu time spent up to now is      534.7 secs

     total energy              =  -17413.54461556 Ry
     Harris-Foulkes estimate   =  -17413.54461556 Ry
     estimated scf accuracy    <          1.3E-09 Ry
 
     Band energy sum           =    -660.31534464 Ry

     iteration # 27     ecut=    60.00 Ry     beta= 0.30
[solve] iterative solver tolerance:     0.000000000000
[solve] average number of iterations:     3.750000

     total cpu time spent up to now is      549.9 secs

     total energy              =  -17413.54461556 Ry
     Harris-Foulkes estimate   =  -17413.54461556 Ry
     estimated scf accuracy    <          3.7E-09 Ry
 
     Band energy sum           =    -660.31539899 Ry

     iteration # 28     ecut=    60.00 Ry     beta= 0.30
[solve] iterative solver tolerance:     0.000000000000
[solve] average number of iterations:     3.000000

     total cpu time spent up to now is      560.2 secs

     total energy              =  -17413.54461556 Ry
     Harris-Foulkes estimate   =  -17413.54461556 Ry
     estimated scf accuracy    <          7.6E-10 Ry
 
     Band energy sum           =    -660.31526759 Ry

     iteration # 29     ecut=    60.00 Ry     beta= 0.30
[solve] iterative solver tolerance:     0.000000000000
[solve] average number of iterations:     0.000000

     total cpu time spent up to now is      567.7 secs

     total energy              =  -17413.54461556 Ry
     Harris-Foulkes estimate   =  -17413.54461556 Ry
     estimated scf accuracy    <          8.1E-10 Ry
 
     Band energy sum           =    -660.31528267 Ry

     iteration # 30     ecut=    60.00 Ry     beta= 0.30
[...]
 | | | | | | |- sddk::matrix_storage::set_num_extra|alloc                2     360.96 ms       0.03     100.00     180.48 ms       8.83 us     360.95 ms
 | | | | | |
 | | | | | |- sddk::matrix_storage::remap_backward                       2     592.76 ms       0.05      18.24     296.38 ms     286.72 ms     306.04 ms
 | | | | | | |- sddk::matrix_storage::remap_backward|mpi                 2     391.13 ms       0.04      65.98     195.57 ms     186.36 ms     204.78 ms
 | | | | |
 | | | | |- sirius::Beta_projectors_base::generate                       4      20.37 ms       0.00       0.36       5.09 ms       2.31 ms       7.89 ms
 | | | | |- sirius::Beta_projectors_base::inner                          4     917.67 ms       0.09      16.38     225.19 ms     148.66 ms     318.63 ms
 | | | | | |- sirius::Beta_projectors_base::inner|comm                   4     136.18 ms       0.01      14.84      34.19 ms      20.17 ms      47.64 ms
 | | | | |
 | | | | |- sirius::Non_local_operator::apply                            8        1.42 s       0.13      25.27     176.96 ms     118.37 ms     235.91 ms
 | | | |
 | | | |- sirius::Band::set_subspace_mtrx                                4     953.48 ms       0.09      10.52     238.46 ms     232.94 ms     243.63 ms
 | | | | |- sddk::inner                                                  4     952.27 ms       0.09      99.87     238.16 ms     232.62 ms     243.33 ms
 | | | | | |- sddk::inner|local                                          4      62.62 us       0.00       0.01      15.89 us       6.94 us      23.89 us
 | | | | | |- sddk::inner|device_copy                                    8     776.83 ms       0.07      81.58      97.07 ms       4.76 ms     189.48 ms
 | | | | | |- sddk::inner|store                                          8      25.32 ms       0.00       2.66       3.19 ms       2.92 ms       3.39 ms
 | | | | | |- sddk::inner|mpi                                            4     147.59 ms       0.01      15.50      37.01 ms      31.38 ms      42.19 ms
 | | | |
 | | | |- Eigensolver_cuda|zhegvdx                                       2     571.46 ms       0.05       6.30     285.73 ms     281.85 ms     289.60 ms
 | | | |- sddk::transform                                                2     242.97 ms       0.02       2.68     121.48 ms     121.47 ms     121.49 ms
 | | | | |- sddk::transform|init                                         2      19.20 us       0.00       0.01       9.60 us       8.64 us      10.56 us
 | | | | |- sddk::transform|local                                        2      32.84 us       0.00       0.01      16.42 us      15.66 us      17.17 us
 | | |
 | | |- sirius::Beta_projectors_base::dismiss                            2       1.24 us       0.00       0.00     621.50 ns     524.00 ns     719.00 ns
 |
 |- qe|electrons                                                         1      927.54 s      85.95      85.95      927.54 s      927.54 s      927.54 s
 | |- sirius::Hamiltonian0                                              74        1.42 s       0.13       0.15      18.95 ms      18.71 ms      24.15 ms
 | | |- sirius::Local_operator                                          74        1.35 s       0.12      95.00      18.01 ms      17.74 ms      23.21 ms
 | | | |- sirius::Smooth_periodic_function                              74     257.82 ms       0.02      19.13       3.41 ms       3.26 ms       7.70 ms
 | | | |- sirius::Smooth_periodic_function::fft_transform               74     782.94 ms       0.07      58.10      10.50 ms       9.94 ms      15.75 ms
 | | |
 | | |- sirius::Non_local_operator                                     148      11.55 ms       0.00       0.81      75.00 us      73.47 us      84.71 us
 | | |- sirius::D_operator::initialize                                  74      15.99 ms       0.00       1.13     215.28 us     197.02 us     233.50 us
 | | |- sirius::Q_operator::initialize                                  74      33.17 ms       0.00       2.34     447.49 us     430.79 us     467.16 us
 | |
 | |- sirius::Band::solve                                               74      746.45 s      69.17      80.48        7.45 s        4.95 s       27.55 s
 | | |- sirius::Hamiltonian_k                                          148      65.59 ms       0.01       0.01     452.48 us     403.05 us     491.12 us
 | | | |- sirius::Local_operator::prepare_k                            148      64.67 ms       0.01      98.60     446.97 us     396.08 us     486.30 us
 | | | |- sirius::Beta_projectors_base::prepare                        148     681.27 us       0.00       1.04       4.72 us       2.98 us       6.33 us
 | | |
 | | |- sirius::Band::diag_pseudo_potential_davidson                   148      737.05 s      68.30      98.74        3.56 s        2.46 s       14.40 s
 | | | |- sirius::Band::diag_pseudo_potential_davidson|alloc           148       11.21 s       1.04       1.52      53.99 ms      53.03 ms        3.27 s
 | | | | |- sddk::matrix_storage::matrix_storage                       888        2.61 s       0.24      23.32     527.00 ns     200.00 ns        2.25 s
 | | | |
 | | | |- sirius::Hamiltonian_k::get_h_o_diag                          148     488.40 ms       0.05       0.07       3.28 ms       3.20 ms       5.19 ms
 | | | | |- sirius::Hamiltonian_k::get_h_o_diag|1                      148      67.89 ms       0.01      13.90     457.25 us     451.06 us     485.10 us
 | | | | |- sirius::Hamiltonian_k::get_h_o_diag|3                      444     269.70 ms       0.02      55.22     716.46 us     237.24 us       2.43 ms
 | | | |
 | | | |- sirius::Band::diag_pseudo_potential_davidson|iter            148      719.00 s      66.63      97.55        3.46 s        2.36 s       14.30 s
 | | | | |- sirius::Hamiltonian_k::apply_h_s                           546      377.67 s      35.00      52.53     362.11 ms      28.09 ms        2.23 s
 | | | | | |- sirius::Local_operator::apply_h                          546      190.04 s      17.61      50.32     172.69 ms       5.74 ms        1.44 s
 | | | | | | |- sddk::matrix_storage::remap_forward                    546       34.64 s       3.21      18.23      31.34 ms       1.25 ms     517.15 ms
 | | | | | | | |- sddk::matrix_storage::set_num_extra                  546     250.25 ms       0.02       0.72       3.11 us       2.13 us     247.71 ms
 | | | | | | | | |- sddk::matrix_storage::set_num_extra|alloc          148     248.77 ms       0.02      99.41       7.14 us       6.16 us     247.71 ms
 | | | | | | | |
 | | | | | | | |- sddk::matrix_storage::remap_forward|mpi              546       28.80 s       2.67      83.16      26.28 ms     818.04 us     244.82 ms
 | | | | | | |
 | | | | | | |- sddk::matrix_storage::set_num_extra                    546     249.76 ms       0.02       0.13       3.61 us       1.12 us     246.98 ms
 | | | | | | | |- sddk::matrix_storage::set_num_extra|alloc            148     248.15 ms       0.02      99.35       7.84 us       5.81 us     246.98 ms
 | | | | | | |
 | | | | | | |- sddk::matrix_storage::remap_backward                   546       44.02 s       4.08      23.16      40.11 ms     983.62 us     205.68 ms
 | | | | | | | |- sddk::matrix_storage::remap_backward|mpi             546       28.41 s       2.63      64.55      25.93 ms     526.36 us     138.03 ms
 | | | | | |
 | | | | | |- sirius::Beta_projectors_base::generate                  1092        4.31 s       0.40       1.14       3.52 ms       2.26 ms       6.85 ms
 | | | | | |- sirius::Beta_projectors_base::inner                     1092       71.08 s       6.59      18.82      37.98 ms       1.06 ms     215.84 ms
 | | | | | | |- sirius::Beta_projectors_base::inner|comm              1092        9.94 s       0.92      13.98       4.19 ms      36.92 us      44.50 ms
 | | | | | |
 | | | | | |- sirius::Non_local_operator::apply                       2184      112.23 s      10.40      29.72      26.59 ms       2.10 ms     159.08 ms
 | | | | |
 | | | | |- sddk::orthogonalize                                        546       95.31 s       8.83      13.26     159.76 ms       5.00 ms     629.39 ms
 | | | | | |- sddk::inner                                              944       33.64 s       3.12      35.30       8.88 ms      75.14 us     126.92 ms
 | | | | | | |- sddk::inner|local                                      944      10.94 ms       0.00       0.03      11.33 us       4.21 us      30.68 us
 | | | | | | |- sddk::inner|device_copy                               1888       28.11 s       2.60      83.55       1.37 ms       7.32 us      98.03 ms
 | | | | | | |- sddk::inner|store                                     1888     827.71 ms       0.08       2.46      65.99 us       2.13 us       3.11 ms
 | | | | | | |- sddk::inner|mpi                                        944        4.69 s       0.43      13.94       1.49 ms      10.23 us      25.80 ms
 | | | | | |
 | | | | | |- sddk::orthogonalize|tmtrx                                546        5.52 s       0.51       5.79       1.35 ms      18.39 us      35.11 ms
 | | | | | |- sddk::orthogonalize|transform                            546       27.69 s       2.57      29.05       9.50 ms      84.80 us     136.08 ms
 | | | | | |- sddk::transform                                          398       28.45 s       2.64      29.85      24.59 ms       3.73 ms     276.73 ms
 | | | | | | |- sddk::transform|init                                   398       5.96 ms       0.00       0.02      12.24 us       9.47 us      43.61 us
 | | | | | | |- sddk::transform|local                                 1194      16.16 ms       0.00       0.06       4.83 us       2.56 us      86.44 us
 | | | | |
 | | | | |- sirius::Band::set_subspace_mtrx                            546       36.27 s       3.36       5.04      57.08 ms       3.51 ms     218.12 ms
 | | | | | |- sddk::inner                                              546       33.20 s       3.08      91.52      49.04 ms       1.11 ms     210.43 ms
 | | | | | | |- sddk::inner|local                                      546      17.01 ms       0.00       0.05      29.37 us       8.46 us      71.78 us
 | | | | | | |- sddk::inner|device_copy                               1092       27.86 s       2.58      83.92       2.13 ms      11.95 us     167.52 ms
 | | | | | | |- sddk::inner|store                                     1092     833.63 ms       0.08       2.51     318.63 us       3.80 us       3.18 ms
 | | | | | | |- sddk::inner|mpi                                        546        4.48 s       0.42      13.50       6.35 ms      49.98 us      77.19 ms
 | | | | |
 | | | | |- Eigensolver_cuda|zheevdx                                   546      148.22 s      13.74      20.62     144.95 ms     128.61 ms        1.00 s
 | | | | |- sirius::residuals                                          546       42.89 s       3.97       5.96      51.04 ms       8.09 us     195.51 ms
 | | | | | |- sddk::transform                                          503       39.45 s       3.66      92.00      70.79 ms       2.55 ms     183.81 ms
 | | | | | | |- sddk::transform|init                                   503       6.95 ms       0.00       0.02      13.27 us       9.71 us      25.33 us
 | | | | | | |- sddk::transform|local                                 1006      18.71 ms       0.00       0.05      16.26 us       4.50 us     108.39 us
 | | | | | |
 | | | | | |- sirius::normalized_preconditioned_residuals              503        2.37 s       0.22       5.52       3.15 ms     203.28 us      25.27 ms
 | | | | |
 | | | | |- sirius::Band::diag_pseudo_potential_davidson|update_phi    148       18.58 s       1.72       2.58      91.25 ms      81.58 ms     264.26 ms
 | | | | | |- sddk::transform                                          148       18.58 s       1.72     100.00      91.25 ms      81.58 ms     264.26 ms
 | | | | | | |- sddk::transform|init                                   148     973.61 us       0.00       0.01       4.80 us       3.95 us      26.40 us
 | | | | | | |- sddk::transform|local                                  148       1.66 ms       0.00       0.01      10.70 us       6.00 us      23.84 us
 | | |
 | | |- sirius::Beta_projectors_base::dismiss                          148      93.23 us       0.00       0.00     618.00 ns     407.00 ns       1.05 us
 | | |- sirius::K_point_set::sync_band_energies                         74      11.54 ms       0.00       0.00      97.03 us      78.08 us       1.42 ms
 | |
 | |- qe|sum_band                                                       74      123.60 s      11.45      13.33        1.67 s        1.65 s        1.92 s
 | | |- sirius::Density::generate                                       74      117.27 s      10.87      94.88        1.58 s        1.57 s        1.82 s
 | | | |- sirius::Density::generate_valence                             74      117.27 s      10.87     100.00        1.58 s        1.57 s        1.82 s
 | | | | |- sddk::matrix_storage::remap_forward                        148       21.98 s       2.04      18.74     146.16 ms     142.62 ms     250.25 ms
 | | | | | |- sddk::matrix_storage::set_num_extra                      148       2.52 ms       0.00       0.01       7.40 us       5.90 us       1.39 ms
 | | | | | | |- sddk::matrix_storage::set_num_extra|alloc                2       1.42 ms       0.00      56.59     712.06 us      41.36 us       1.38 ms
 | | | | | |
 | | | | | |- sddk::matrix_storage::remap_forward|mpi                  148       18.57 s       1.72      84.49     123.50 ms     119.26 ms     219.71 ms
 | | | | |
 | | | | |- sirius::Density::add_k_point_contribution_dm               148       46.05 s       4.27      39.27     310.48 ms     304.79 ms     329.42 ms
 | | | | | |- sirius::Beta_projectors_base::prepare                    148       1.28 ms       0.00       0.00       8.52 us       6.80 us      16.11 us
 | | | | | |- sirius::Beta_projectors_base::generate                   296        1.04 s       0.10       2.26       3.54 ms       2.27 ms       4.76 ms
 | | | | | |- sirius::Beta_projectors_base::inner                      296       44.81 s       4.15      97.31     155.96 ms     100.29 ms     216.50 ms
 | | | | | | |- sirius::Beta_projectors_base::inner|comm               296        6.15 s       0.57      13.73      23.26 ms      11.16 ms      40.55 ms
 | | | | | |
 | | | | | |- sirius::Beta_projectors_base::dismiss                    148     111.29 us       0.00       0.00     710.50 ns     505.00 ns       1.32 us
 | | | | |
 | | | | |- sirius::Density::add_k_point_contribution_rg               148       34.19 s       3.17      29.16     230.97 ms     230.08 ms     241.99 ms
 | | | | |- sirius::Smooth_periodic_function::fft_transform             74     485.78 ms       0.05       0.41       6.56 ms       6.52 ms       6.62 ms
 | | | | |- sirius::Density::augment                                    74        4.52 s       0.42       3.86      61.11 ms      61.09 ms      61.17 ms
 | | | | | |- sirius::Density::generate_rho_aug                         74        4.51 s       0.42      99.75      60.96 ms      60.94 ms      61.02 ms
 | | |
 | | |- sirius_api::sirius_get_pw_coeffs                                74        4.41 s       0.41       3.57      59.37 ms      58.09 ms      75.23 ms
 | | | |- sirius::Smooth_periodic_function::gather_f_pw                 74        1.45 s       0.13      32.90      19.27 ms      19.05 ms      34.48 ms
 | | |
 | | |- qe|sym_rho                                                      74      76.48 us       0.00       0.00     996.00 ns     796.00 ns       2.44 us
 | |
 | |- qe|mix                                                            74        8.23 s       0.76       0.89     115.25 ms      11.39 ms     119.39 ms
 | |- sirius_api::sirius_set_pw_coeffs                                  74        2.84 s       0.26       0.31      37.65 ms      34.87 ms      49.61 ms
 | | |- sirius::Smooth_periodic_function::fft_transform                 74     300.90 ms       0.03      10.58       2.78 ms       2.04 ms      14.70 ms
 | |
 | |- qe|newd                                                           74        4.70 s       0.44       0.51      63.44 ms      63.29 ms      65.70 ms
 | | |- sirius::Potential::generate_D_operator_matrix                   74        4.68 s       0.43      99.39      63.05 ms      62.90 ms      65.30 ms
 |
 |- sirius_api::sirius_get_wave_functions                                2        3.13 s       0.29       0.29        1.56 s        1.44 s        1.69 s
 | |- sddk::matrix_storage::matrix_storage                               2      31.58 us       0.00       0.00      15.79 us      13.05 us      18.52 us
 |
 |- qe|ions                                                              1       22.78 s       2.11       2.11       22.78 s       22.78 s       22.78 s
 | |- sirius_api::sirius_set_pw_coeffs                                   1      40.49 ms       0.00       0.18      40.49 ms      40.49 ms      40.49 ms
 | | |- sirius::Smooth_periodic_function::fft_transform                  1       4.29 ms       0.00      10.59       4.29 ms       4.29 ms       4.29 ms
 | |
 | |- qe|forces                                                          1       22.74 s       2.11      99.82       22.74 s       22.74 s       22.74 s
 | | |- qe|force|us                                                      1        3.31 s       0.31      14.54        3.31 s        3.31 s        3.31 s
 | | | |- sirius::Force::calc_forces_us                                  1     617.93 ms       0.06      18.69     617.93 ms     617.93 ms     617.93 ms
 | | | | |- sirius::Smooth_periodic_function::fft_transform              1       1.93 ms       0.00       0.31       1.93 ms       1.93 ms       1.93 ms
 | | | |
 | | | |- sirius::Force::calc_forces_nonloc                              1        2.69 s       0.25      81.31        2.69 s        2.69 s        2.69 s
 | | | | |- sirius::Non_local_functor::add_k_point                       2        2.55 s       0.24      94.88        1.28 s        1.27 s        1.28 s
 | | | | | |- sirius::Beta_projectors_base::prepare                      8      23.04 ms       0.00       0.90       2.87 ms       4.83 us       5.76 ms
 | | | | | |- sirius::Beta_projectors_base::generate                    16      56.64 ms       0.01       2.22       3.55 ms       2.29 ms       4.81 ms
 | | | | | |- sirius::Beta_projectors_base::inner                       16        2.40 s       0.22      94.11     149.91 ms      99.43 ms     204.05 ms
 | | | | | | |- sirius::Beta_projectors_base::inner|comm                16     322.92 ms       0.03      13.45      19.48 ms      11.04 ms      33.23 ms
 | | | | | |
 | | | | | |- sirius::Beta_projectors_base::dismiss                      6       9.55 us       0.00       0.00       1.48 us       1.24 us       2.07 us
 | | |
 | | |- qe|force|local                                                   1        1.22 s       0.11       5.35        1.22 s        1.22 s        1.22 s
 | | |- qe|force|cc                                                      1        9.70 s       0.90      42.67        9.70 s        9.70 s        9.70 s
 | | |- qe|force|ewald                                                   1     884.71 ms       0.08       3.89     884.71 ms     884.71 ms     884.71 ms
 | | |- qe|force|scf                                                     1        7.62 s       0.71      33.51        7.62 s        7.62 s        7.62 s
 |
 |- qe|punch                                                             1       61.18 s       5.67       5.67       61.18 s       61.18 s       61.18 s
 |- sirius::finalize                                                     1     150.45 ms       0.01       0.01     150.45 ms     150.45 ms     150.45 ms

========================================================================================================================================================
